
  ___ ___ ___ _ _ _  
 |   |   |_  | | | | 
 | | | | | . | | | | 
 |__ |  _|___|_____|  1.5.2
 |___|_|             

User:   ???@85eae338792d
Date:   Thu May  9 03:51:05 2019
Arch:   x86_64
Pid:    4053
Python: 3.6.7
gpaw:   /usr/local/lib/python3.6/dist-packages/gpaw
_gpaw:  /usr/local/lib/python3.6/dist-packages/
        _gpaw.cpython-36m-x86_64-linux-gnu.so
ase:    /usr/local/lib/python3.6/dist-packages/ase (version 3.17.0)
numpy:  /usr/local/lib/python3.6/dist-packages/numpy (version 1.16.3)
scipy:  /usr/local/lib/python3.6/dist-packages/scipy (version 1.2.1)
units:  Angstrom and eV
cores:  1

Input parameters:
  kpts: [8 8 8]
  mode: {ecut: 200.0,
         gammacentered: False,
         name: pw}
  occupations: {name: fermi-dirac,
                width: 0.01}
  random: True
  xc: PBE

System changes: positions, numbers, cell, pbc, initial_charges, initial_magmoms 

Initialize ...

Ga-setup:
  name: Gallium
  id: 818a1f824512bb44ae6134ae13584d59
  Z: 31
  valence: 3
  core: 28
  charge: 0.0
  file: /content/gpaw-data/gpaw-setups-0.9.20000/Ga.PBE.gz
  cutoffs: 1.16(comp), 2.06(filt), 4.17(core), lmax=2
  valence states:
                energy  radius
    4s(2.00)    -8.945   1.164
    4p(1.00)    -2.580   1.164
    *s          18.266   1.164
    *p          24.631   1.164
    *d           0.000   1.164

  Using partial waves for Ga as LCAO basis

As-setup:
  name: Arsenic
  id: bf96491e5ab01ad111b1ee6203e85afa
  Z: 33
  valence: 5
  core: 28
  charge: 0.0
  file: /content/gpaw-data/gpaw-setups-0.9.20000/As.PBE.gz
  cutoffs: 1.06(comp), 1.87(filt), 2.96(core), lmax=2
  valence states:
                energy  radius
    4s(2.00)   -14.487   1.058
    4p(3.00)    -5.196   1.058
    *s          12.725   1.058
    *p          22.016   1.058
    *d           0.000   1.058

  Using partial waves for As as LCAO basis

Reference energy: -114387.645129

Spin-paired calculation

Occupation numbers:
  Fermi-Dirac: width=0.0100 eV

Convergence criteria:
  Maximum total energy change: 0.0005 eV / electron
  Maximum integral of absolute density change: 0.0001 electrons
  Maximum integral of absolute eigenstate change: 4e-08 eV^2
  Maximum number of iterations: 333

Symmetries present (total): 24

  ( 1  0  0)  ( 1  0  0)  ( 1  0 -1)  ( 1  0 -1)  ( 1 -1  0)  ( 1 -1  0)
  ( 0  1  0)  ( 0  0  1)  ( 0  1 -1)  ( 0  0 -1)  ( 0 -1  1)  ( 0 -1  0)
  ( 0  0  1)  ( 0  1  0)  ( 0  0 -1)  ( 0  1 -1)  ( 0 -1  0)  ( 0 -1  1)

  ( 0  1  0)  ( 0  1  0)  ( 0  1 -1)  ( 0  1 -1)  ( 0  0  1)  ( 0  0  1)
  ( 1  0  0)  ( 0  0  1)  ( 1  0 -1)  ( 0  0 -1)  ( 1  0  0)  ( 0  1  0)
  ( 0  0  1)  ( 1  0  0)  ( 0  0 -1)  ( 1  0 -1)  ( 0  1  0)  ( 1  0  0)

  ( 0  0 -1)  ( 0  0 -1)  ( 0 -1  1)  ( 0 -1  1)  ( 0 -1  0)  ( 0 -1  0)
  ( 1  0 -1)  ( 0  1 -1)  ( 1 -1  0)  ( 0 -1  0)  ( 1 -1  0)  ( 0 -1  1)
  ( 0  1 -1)  ( 1  0 -1)  ( 0 -1  0)  ( 1 -1  0)  ( 0 -1  1)  ( 1 -1  0)

  (-1  1  0)  (-1  1  0)  (-1  0  1)  (-1  0  1)  (-1  0  0)  (-1  0  0)
  (-1  0  1)  (-1  0  0)  (-1  1  0)  (-1  0  0)  (-1  1  0)  (-1  0  1)
  (-1  0  0)  (-1  0  1)  (-1  0  0)  (-1  1  0)  (-1  0  1)  (-1  1  0)
Note: your k-points are not as symmetric as your crystal!

512 k-points: 8 x 8 x 8 Monkhorst-Pack grid
60 k-points in the irreducible part of the Brillouin zone
       k-points in crystal coordinates                weights
   0:     0.06250000    0.06250000   -0.06250000          6/512
   1:     0.06250000    0.06250000    0.06250000          2/512
   2:     0.18750000   -0.06250000   -0.06250000          6/512
   3:     0.18750000    0.06250000   -0.18750000         12/512
   4:     0.18750000    0.06250000   -0.06250000         12/512
   5:     0.18750000    0.06250000    0.06250000          6/512
   6:     0.18750000    0.18750000   -0.18750000          6/512
   7:     0.18750000    0.18750000   -0.06250000          6/512
   8:     0.18750000    0.18750000    0.06250000          6/512
   9:     0.18750000    0.18750000    0.18750000          2/512
          ...
  59:     0.43750000    0.43750000    0.43750000          2/512

Wave functions: Plane wave expansion
  Cutoff energy: 200.000 eV
  Number of coefficients (min, max): 281, 299
  Pulay-stress correction: 0.000000 eV/Ang^3 (de/decut=0.000000)
  Using FFTW library
  ScaLapack parameters: grid=1x1, blocksize=None
  Wavefunction extrapolation:
    Improved wavefunction reuse through dual PAW basis 

Eigensolver
   Davidson(niter=2, smin=None, normalize=True) 

Densities:
  Coarse grid: 12*12*12 grid
  Fine grid: 24*24*24 grid
  Total Charge: 0.000000 

Density mixing:
  Method: separate
  Backend: pulay
  Linear mixing parameter: 0.05
  Mixing with 5 old densities
  Damping of long wave oscillations: 50 

Hamiltonian:
  XC and Coulomb potentials evaluated on a 24*24*24 grid
  Using the PBE Exchange-Correlation functional
 

XC parameters: PBE with 2 nearest neighbor stencil

Memory estimate:
  Process memory now: 79.97 MiB
  Calculator: 6.31 MiB
    Density: 0.77 MiB
      Arrays: 0.34 MiB
      Localized functions: 0.29 MiB
      Mixer: 0.13 MiB
    Hamiltonian: 0.23 MiB
      Arrays: 0.22 MiB
      XC: 0.00 MiB
      Poisson: 0.00 MiB
      vbar: 0.01 MiB
    Wavefunctions: 5.31 MiB
      Arrays psit_nG: 2.19 MiB
      Eigensolver: 0.07 MiB
      Projections: 0.19 MiB
      Projectors: 2.52 MiB
      PW-descriptor: 0.34 MiB

Total number of cores used: 1

Number of atoms: 2
Number of atomic orbitals: 8
Number of bands in calculation: 8
Bands to converge: occupied states only
Number of valence electrons: 8

... initialized

Initializing position-dependent things.

Density initialized from atomic densities
Creating initial wave functions:
  8 bands from LCAO basis set

                    
                    
                    
                    
           As       
                    
       Ga           
                    
                    
                    
                    

Positions:
   0 Ga     0.000000    0.000000    0.000000    ( 0.0000,  0.0000,  0.0000)
   1 As     1.412500    1.412500    1.412500    ( 0.0000,  0.0000,  0.0000)

Unit cell:
           periodic     x           y           z      points  spacing
  1. axis:    yes    0.000000    2.825000    2.825000    12     0.2718
  2. axis:    yes    2.825000    0.000000    2.825000    12     0.2718
  3. axis:    yes    2.825000    2.825000    0.000000    12     0.2718

  Lengths:   3.995153   3.995153   3.995153
  Angles:   60.000000  60.000000  60.000000

Effective grid spacing dv^(1/3) = 0.2966

                     log10-error:    total        iterations:
           time      wfs    density  energy       fermi  poisson
iter:   1  03:51:08  +0.81   +inf    -8.306078    0             
iter:   2  03:51:09  -2.72  -0.87    -8.290943    0             
iter:   3  03:51:10  -1.81  -0.89    -8.239583    3             
iter:   4  03:51:11  -3.75  -1.38    -8.229559    0             
iter:   5  03:51:12  -2.38  -1.39    -8.229705    0             
iter:   6  03:51:13  -3.34  -1.58    -8.222248    0             
iter:   7  03:51:14  -4.80  -2.29    -8.222186    0             
iter:   8  03:51:15  -4.52  -2.16    -8.221952    0             
iter:   9  03:51:16  -5.95  -3.29    -8.221954    0             
iter:  10  03:51:16  -7.17  -3.47    -8.221953    0             
iter:  11  03:51:17  -7.38  -3.48    -8.221956    0             
iter:  12  03:51:18  -8.00  -3.93    -8.221956    0             
iter:  13  03:51:19  -9.28  -4.61    -8.221956    0             

Converged after 13 iterations.

Dipole moment: (-3.427561, -3.427561, -3.427561) |e|*Ang

Energy contributions relative to reference atoms: (reference = -114387.645129)

Kinetic:        +27.824499
Potential:      -24.628578
External:        +0.000000
XC:             -11.422117
Entropy (-ST):   -0.000000
Local:           +0.004240
--------------------------
Free energy:     -8.221956
Extrapolated:    -8.221956

Fermi level: 5.14783

Showing only first 2 kpts
 Kpt  Band  Eigenvalues  Occupancy
  0     2      4.52883    0.02344
  0     3      4.61042    0.02344
  0     4      6.87707    0.00000
  0     5      8.45040    0.00000

  1     2      4.87619    0.00781
  1     3      4.87619    0.00781
  1     4      6.16806    0.00000
  1     5      8.79307    0.00000


Writing to GaAs_gs.gpw (mode='')

Timing:                              incl.     excl.
-----------------------------------------------------------
Hamiltonian:                         0.154     0.000   0.0% |
 Atomic:                             0.137     0.001   0.0% |
  XC Correction:                     0.136     0.136   0.5% |
 Calculate atomic Hamiltonians:      0.001     0.001   0.0% |
 Communicate:                        0.000     0.000   0.0% |
 Initialize Hamiltonian:             0.000     0.000   0.0% |
 Poisson:                            0.000     0.000   0.0% |
 XC 3D grid:                         0.016     0.016   0.1% |
LCAO initialization:                 1.047     0.081   0.3% |
 LCAO eigensolver:                   0.175     0.003   0.0% |
  Calculate projections:             0.002     0.002   0.0% |
  DenseAtomicCorrection:             0.007     0.007   0.0% |
  Distribute overlap matrix:         0.001     0.001   0.0% |
  Orbital Layouts:                   0.010     0.010   0.0% |
  Potential matrix:                  0.019     0.019   0.1% |
  Sum over cells:                    0.131     0.131   0.5% |
 LCAO to grid:                       0.565     0.565   2.1% ||
 Set positions (LCAO WFS):           0.227     0.034   0.1% |
  Basic WFS set positions:           0.001     0.001   0.0% |
  Basis functions set positions:     0.000     0.000   0.0% |
  P tci:                             0.061     0.061   0.2% |
  ST tci:                            0.118     0.118   0.4% |
  mktci:                             0.013     0.013   0.0% |
PWDescriptor:                        0.008     0.008   0.0% |
SCF-cycle:                          12.296     0.082   0.3% |
 Davidson:                           8.989     3.496  13.2% |----|
  Apply H:                           1.308     1.107   4.2% |-|
   HMM T:                            0.201     0.201   0.8% |
  Subspace diag:                     0.960     0.077   0.3% |
   calc_h_matrix:                    0.642     0.199   0.8% |
    Apply H:                         0.443     0.371   1.4% ||
     HMM T:                          0.072     0.072   0.3% |
   diagonalize:                      0.139     0.139   0.5% |
   rotate_psi:                       0.102     0.102   0.4% |
  calc. matrices:                    1.980     1.155   4.4% |-|
   Apply H:                          0.824     0.697   2.6% ||
    HMM T:                           0.127     0.127   0.5% |
  diagonalize:                       1.089     1.089   4.1% |-|
  rotate_psi:                        0.156     0.156   0.6% |
 Density:                            0.391     0.000   0.0% |
  Atomic density matrices:           0.061     0.061   0.2% |
  Mix:                               0.028     0.028   0.1% |
  Multipole moments:                 0.007     0.007   0.0% |
  Pseudo density:                    0.295     0.230   0.9% |
   Symmetrize density:               0.065     0.065   0.2% |
 Hamiltonian:                        2.768     0.005   0.0% |
  Atomic:                            2.460     0.010   0.0% |
   XC Correction:                    2.450     2.450   9.3% |---|
  Calculate atomic Hamiltonians:     0.013     0.013   0.0% |
  Communicate:                       0.000     0.000   0.0% |
  Poisson:                           0.002     0.002   0.0% |
  XC 3D grid:                        0.287     0.287   1.1% |
 Orthonormalize:                     0.066     0.006   0.0% |
  calc_s_matrix:                     0.011     0.011   0.0% |
  inverse-cholesky:                  0.020     0.020   0.1% |
  projections:                       0.026     0.026   0.1% |
  rotate_psi_s:                      0.004     0.004   0.0% |
Set symmetry:                        0.044     0.044   0.2% |
Other:                              12.938    12.938  48.8% |-------------------|
-----------------------------------------------------------
Total:                                        26.488 100.0%

Date: Thu May  9 03:51:32 2019
