
  ___ ___ ___ _ _ _  
 |   |   |_  | | | | 
 | | | | | . | | | | 
 |__ |  _|___|_____|  1.5.2
 |___|_|             

User:   ???@3007845e0667
Date:   Wed May  8 15:58:03 2019
Arch:   x86_64
Pid:    4200
Python: 3.6.7
gpaw:   /usr/local/lib/python3.6/dist-packages/gpaw
_gpaw:  /usr/local/lib/python3.6/dist-packages/
        _gpaw.cpython-36m-x86_64-linux-gnu.so
ase:    /usr/local/lib/python3.6/dist-packages/ase (version 3.17.0)
numpy:  /usr/local/lib/python3.6/dist-packages/numpy (version 1.16.3)
scipy:  /usr/local/lib/python3.6/dist-packages/scipy (version 1.2.1)
units:  Angstrom and eV
cores:  1

Reading from gs_Bi2Se3.gpw
Read dipole, energy, free_energy
Reading input parameters:
  h: 0.1
  kpts: {gamma: True,
         size: [8 8 8]}
  mode: {ecut: 500.0,
         gammacentered: False,
         name: pw}
  occupations: {name: fermi-dirac,
                width: 0.001}
  xc: PBE

Initialize ...

Bi-setup:
  name: Bismuth
  id: 9be4637686759ed046cc83ce779b1919
  Z: 83
  valence: 15
  core: 68
  charge: 0.0
  file: /content/gpaw-data/gpaw-setups-0.9.20000/Bi.PBE.gz
  cutoffs: 1.21(comp), 2.23(filt), 2.33(core), lmax=2
  valence states:
                energy  radius
    6s(2.00)   -14.385   1.286
    6p(3.00)    -4.580   1.275
    5d(10.00)   -27.119   1.349
    *s          12.827   1.286
    *p          22.631   1.275
    *d           0.093   1.349

  Using partial waves for Bi as LCAO basis

Se-setup:
  name: Selenium
  id: 2336a0774a38175ff9db42ee3890f88a
  Z: 34
  valence: 6
  core: 28
  charge: 0.0
  file: /content/gpaw-data/gpaw-setups-0.9.20000/Se.PBE.gz
  cutoffs: 0.85(comp), 1.77(filt), 2.67(core), lmax=2
  valence states:
                energy  radius
    4s(2.00)   -17.277   0.847
    4p(4.00)    -6.512   1.005
    *s           9.935   0.847
    *p          20.699   1.005
    *d           0.000   0.847

  Using partial waves for Se as LCAO basis

Reference energy: -1368007.362297

Spin-paired calculation

Occupation numbers:
  Fermi-Dirac: width=0.0010 eV

Convergence criteria:
  Maximum total energy change: 0.0005 eV / electron
  Maximum integral of absolute density change: 0.0001 electrons
  Maximum integral of absolute eigenstate change: 4e-08 eV^2
  Maximum number of iterations: 333

Symmetries present (total): 12

  ( 1  0  0)  ( 1  0  0)  ( 0  1  0)  ( 0  1  0)  ( 0  0  1)  ( 0  0  1)
  ( 0  1  0)  ( 0  0  1)  ( 1  0  0)  ( 0  0  1)  ( 1  0  0)  ( 0  1  0)
  ( 0  0  1)  ( 0  1  0)  ( 0  0  1)  ( 1  0  0)  ( 0  1  0)  ( 1  0  0)

  ( 0  0 -1)  ( 0  0 -1)  ( 0 -1  0)  ( 0 -1  0)  (-1  0  0)  (-1  0  0)
  ( 0 -1  0)  (-1  0  0)  ( 0  0 -1)  (-1  0  0)  ( 0  0 -1)  ( 0 -1  0)
  (-1  0  0)  ( 0 -1  0)  (-1  0  0)  ( 0  0 -1)  ( 0 -1  0)  ( 0  0 -1)

512 k-points: 8 x 8 x 8 Monkhorst-Pack grid + [1/16,1/16,1/16]
65 k-points in the irreducible part of the Brillouin zone
       k-points in crystal coordinates                weights
   0:     0.00000000    0.00000000    0.00000000          1/512
   1:     0.12500000    0.00000000   -0.12500000          6/512
   2:     0.12500000    0.00000000    0.00000000          6/512
   3:     0.12500000    0.12500000   -0.12500000          6/512
   4:     0.12500000    0.12500000    0.00000000          6/512
   5:     0.12500000    0.12500000    0.12500000          2/512
   6:     0.25000000   -0.12500000   -0.12500000          6/512
   7:     0.25000000    0.00000000   -0.25000000          6/512
   8:     0.25000000    0.00000000   -0.12500000         12/512
   9:     0.25000000    0.00000000    0.00000000          6/512
          ...
  64:     0.50000000    0.50000000    0.50000000          1/512

Wave functions: Plane wave expansion
  Cutoff energy: 500.000 eV
  Number of coefficients (min, max): 3561, 3621
  Pulay-stress correction: 0.000000 eV/Ang^3 (de/decut=0.000000)
  Using FFTW library
  ScaLapack parameters: grid=1x1, blocksize=None
  Wavefunction extrapolation:
    Improved wavefunction reuse through dual PAW basis 

Eigensolver
   Davidson(niter=2, smin=None, normalize=True) 

Densities:
  Coarse grid: 36*36*36 grid
  Fine grid: 72*72*72 grid
  Total Charge: 0.000000 

Density mixing:
  Method: separate
  Backend: pulay
  Linear mixing parameter: 0.05
  Mixing with 5 old densities
  Damping of long wave oscillations: 50 

Hamiltonian:
  XC and Coulomb potentials evaluated on a 72*72*72 grid
  Using the PBE Exchange-Correlation functional
 

XC parameters: PBE with 2 nearest neighbor stencil

Memory estimate:
  Process memory now: 105.15 MiB
  Calculator: 173.67 MiB
    Density: 14.51 MiB
      Arrays: 9.25 MiB
      Localized functions: 1.70 MiB
      Mixer: 3.56 MiB
    Hamiltonian: 6.09 MiB
      Arrays: 6.05 MiB
      XC: 0.00 MiB
      Poisson: 0.00 MiB
      vbar: 0.04 MiB
    Wavefunctions: 153.07 MiB
      Arrays psit_nG: 107.74 MiB
      Eigensolver: 2.07 MiB
      Projections: 2.23 MiB
      Projectors: 35.65 MiB
      PW-descriptor: 5.37 MiB

Total number of cores used: 1

Number of atoms: 5
Number of atomic orbitals: 30
Number of bands in calculation: 30
Bands to converge: occupied states only
Number of valence electrons: 48

... initialized

Input parameters:
  fixdensity: True
  kpts: [[0.         0.         0.        ],
         [0.02380952 0.02380952 0.02380952],
         [0.04761905 0.04761905 0.04761905],
         ...,
         [0.48333333 0.         0.        ],
         [0.49166667 0.         0.        ],
         [0.5        0.         0.        ]]
  symmetry: off

Initialize ...

Bi-setup:
  name: Bismuth
  id: 9be4637686759ed046cc83ce779b1919
  Z: 83
  valence: 15
  core: 68
  charge: 0.0
  file: /content/gpaw-data/gpaw-setups-0.9.20000/Bi.PBE.gz
  cutoffs: 1.21(comp), 2.23(filt), 2.33(core), lmax=2
  valence states:
                energy  radius
    6s(2.00)   -14.385   1.286
    6p(3.00)    -4.580   1.275
    5d(10.00)   -27.119   1.349
    *s          12.827   1.286
    *p          22.631   1.275
    *d           0.093   1.349

  Using partial waves for Bi as LCAO basis

Se-setup:
  name: Selenium
  id: 2336a0774a38175ff9db42ee3890f88a
  Z: 34
  valence: 6
  core: 28
  charge: 0.0
  file: /content/gpaw-data/gpaw-setups-0.9.20000/Se.PBE.gz
  cutoffs: 0.85(comp), 1.77(filt), 2.67(core), lmax=2
  valence states:
                energy  radius
    4s(2.00)   -17.277   0.847
    4p(4.00)    -6.512   1.005
    *s           9.935   0.847
    *p          20.699   1.005
    *d           0.000   0.847

  Using partial waves for Se as LCAO basis

Reference energy: -1368007.362297

Spin-paired calculation

Occupation numbers:
  Fixed Fermi level
  Fermi-Dirac: width=0.0010 eV

Convergence criteria:
  Maximum total energy change: 0.0005 eV / electron
  Maximum integral of absolute density change: 0.0001 electrons
  Maximum integral of absolute eigenstate change: 4e-08 eV^2
  Maximum number of iterations: 333

Symmetries present (total): 1

  ( 1  0  0)
  ( 0  1  0)
  ( 0  0  1)

200 k-points
200 k-points in the irreducible part of the Brillouin zone
       k-points in crystal coordinates                weights
   0:     0.00000000    0.00000000    0.00000000       0.00500000
   1:     0.02380952    0.02380952    0.02380952       0.00500000
   2:     0.04761905    0.04761905    0.04761905       0.00500000
   3:     0.07142857    0.07142857    0.07142857       0.00500000
   4:     0.09523810    0.09523810    0.09523810       0.00500000
   5:     0.11904762    0.11904762    0.11904762       0.00500000
   6:     0.14285714    0.14285714    0.14285714       0.00500000
   7:     0.16666667    0.16666667    0.16666667       0.00500000
   8:     0.19047619    0.19047619    0.19047619       0.00500000
   9:     0.21428571    0.21428571    0.21428571       0.00500000
          ...
 199:     0.50000000    0.00000000    0.00000000       0.00500000

Wave functions: Plane wave expansion
  Cutoff energy: 500.000 eV
  Number of coefficients (min, max): 3570, 3625
  Pulay-stress correction: 0.000000 eV/Ang^3 (de/decut=0.000000)
  Using FFTW library
  ScaLapack parameters: grid=1x1, blocksize=None
  Wavefunction extrapolation:
    Improved wavefunction reuse through dual PAW basis 

Eigensolver
   Davidson(niter=2, smin=None, normalize=True) 

No density mixing

XC parameters: PBE with 2 nearest neighbor stencil

Memory estimate:
  Process memory now: 119.60 MiB
  Calculator: 484.15 MiB
    Density: 14.51 MiB
      Arrays: 9.25 MiB
      Localized functions: 1.70 MiB
      Mixer: 3.56 MiB
    Hamiltonian: 6.09 MiB
      Arrays: 6.05 MiB
      XC: 0.00 MiB
      Poisson: 0.00 MiB
      vbar: 0.04 MiB
    Wavefunctions: 463.55 MiB
      Arrays psit_nG: 331.88 MiB
      Eigensolver: 2.07 MiB
      Projections: 6.87 MiB
      Projectors: 109.89 MiB
      PW-descriptor: 12.84 MiB

Total number of cores used: 1

Number of atoms: 5
Number of atomic orbitals: 30
Number of bands in calculation: 30
Bands to converge: occupied states only
Number of valence electrons: 48

... initialized

Initializing position-dependent things.

Creating initial wave functions:
  30 bands from LCAO basis set

                
                
                
       Bi       
                
                
                
                
                
                
       Se       
                
                
                
                
                
                
       Se       
                
                
                
                
                
                
                
       Se       
                
                
                
                
                
                
       Bi       
                
                
                

Positions:
   0 Bi     0.000000   -0.000000   11.427360    ( 0.0000,  0.0000,  0.0000)
   1 Bi    -0.000000    0.000000  -11.427360    ( 0.0000,  0.0000,  0.0000)
   2 Se     0.000000    0.000000    0.000000    ( 0.0000,  0.0000,  0.0000)
   3 Se    -0.000000    0.000000    5.899840    ( 0.0000,  0.0000,  0.0000)
   4 Se     0.000000   -0.000000   -5.899840    ( 0.0000,  0.0000,  0.0000)

Unit cell:
           periodic     x           y           z      points  spacing
  1. axis:    yes   -2.069000   -1.194538    9.546667    36     0.0988
  2. axis:    yes    2.069000   -1.194538    9.546667    36     0.0988
  3. axis:    yes    0.000000    2.389075    9.546667    36     0.0988

  Lengths:   9.841063   9.841063   9.841063
  Angles:   24.273011  24.273011  24.273011

Effective grid spacing dv^(1/3) = 0.1448

                     log10-error:    total        iterations:
           time      wfs    density  energy       fermi  poisson
iter:   1  16:02:26  -0.08          -14.733284    0             
iter:   2  16:04:08  -1.98          -14.763410    0             
iter:   3  16:05:49  -3.04          -14.764974    0             
iter:   4  16:07:29  -3.94          -14.765130    0             
iter:   5  16:09:10  -4.74          -14.765155    0             
iter:   6  16:10:50  -5.47          -14.765160    0             
iter:   7  16:12:31  -6.15          -14.765161    0             
iter:   8  16:14:11  -6.82          -14.765161    0             
iter:   9  16:15:49  -7.50          -14.765161    0             

Converged after 9 iterations.

Dipole moment: (-0.000000, -0.000000, -0.000000) |e|*Ang

Energy contributions relative to reference atoms: (reference = -1368007.362297)

Kinetic:        +60.213056
Potential:      -51.887548
External:        +0.000000
XC:             -19.975451
Entropy (-ST):   -0.000000
Local:           -3.115218
--------------------------
Free energy:    -14.765161
Extrapolated:   -14.765161

Fixed Fermi level: 6.09715

Showing only first 2 kpts
 Kpt  Band  Eigenvalues  Occupancy
  0    22      5.06074    0.01000
  0    23      6.06227    0.01000
  0    24      6.21901    0.00000
  0    25      7.13842    0.00000

  1    22      5.05974    0.01000
  1    23      6.04195    0.01000
  1    24      6.23964    0.00000
  1    25      7.14018    0.00000


Writing to Bi2Se3_bands.gpw (mode='')

Timing:                              incl.     excl.
-----------------------------------------------------------
Hamiltonian:                         0.976     0.002   0.0% |
 Atomic:                             0.592     0.001   0.0% |
  XC Correction:                     0.590     0.590   0.1% |
 Calculate atomic Hamiltonians:      0.008     0.008   0.0% |
 Communicate:                        0.000     0.000   0.0% |
 Poisson:                            0.000     0.000   0.0% |
 XC 3D grid:                         0.374     0.374   0.0% |
LCAO initialization:               152.068     0.187   0.0% |
 LCAO eigensolver:                   1.443     0.010   0.0% |
  Calculate projections:             0.025     0.025   0.0% |
  DenseAtomicCorrection:             0.059     0.059   0.0% |
  Distribute overlap matrix:         0.005     0.005   0.0% |
  Orbital Layouts:                   0.203     0.203   0.0% |
  Potential matrix:                  0.505     0.505   0.0% |
  Sum over cells:                    0.635     0.635   0.1% |
 LCAO to grid:                     149.044   149.044  14.0% |-----|
 Set positions (LCAO WFS):           1.394     0.186   0.0% |
  Basic WFS set positions:           0.000     0.000   0.0% |
  Basis functions set positions:     0.000     0.000   0.0% |
  P tci:                             0.640     0.640   0.1% |
  ST tci:                            0.541     0.541   0.1% |
  mktci:                             0.027     0.027   0.0% |
PWDescriptor:                        0.453     0.453   0.0% |
Redistribute:                        0.000     0.000   0.0% |
SCF-cycle:                         906.982     0.123   0.0% |
 Davidson:                         903.849    76.459   7.2% |--|
  Apply H:                         394.863   387.841  36.4% |--------------|
   HMM T:                            7.022     7.022   0.7% |
  Subspace diag:                   160.900     0.287   0.0% |
   calc_h_matrix:                  147.345     6.479   0.6% |
    Apply H:                       140.866   138.395  13.0% |----|
     HMM T:                          2.471     2.471   0.2% |
   diagonalize:                      3.402     3.402   0.3% |
   rotate_psi:                       9.866     9.866   0.9% |
  calc. matrices:                  235.789    29.033   2.7% ||
   Apply H:                        206.755   202.897  19.0% |-------|
    HMM T:                           3.859     3.859   0.4% |
  diagonalize:                      12.819    12.819   1.2% |
  rotate_psi:                       23.020    23.020   2.2% ||
 Orthonormalize:                     3.009     0.031   0.0% |
  calc_s_matrix:                     0.658     0.658   0.1% |
  inverse-cholesky:                  0.109     0.109   0.0% |
  projections:                       1.677     1.677   0.2% |
  rotate_psi_s:                      0.535     0.535   0.1% |
Set symmetry:                        0.022     0.022   0.0% |
Other:                               5.132     5.132   0.5% |
-----------------------------------------------------------
Total:                                      1065.634 100.0%

Date: Wed May  8 16:15:49 2019
