
  ___ ___ ___ _ _ _  
 |   |   |_  | | | | 
 | | | | | . | | | | 
 |__ |  _|___|_____|  1.5.2
 |___|_|             

User:   ???@3007845e0667
Date:   Wed May  8 15:46:08 2019
Arch:   x86_64
Pid:    3965
Python: 3.6.7
gpaw:   /usr/local/lib/python3.6/dist-packages/gpaw
_gpaw:  /usr/local/lib/python3.6/dist-packages/
        _gpaw.cpython-36m-x86_64-linux-gnu.so
ase:    /usr/local/lib/python3.6/dist-packages/ase (version 3.17.0)
numpy:  /usr/local/lib/python3.6/dist-packages/numpy (version 1.16.3)
scipy:  /usr/local/lib/python3.6/dist-packages/scipy (version 1.2.1)
units:  Angstrom and eV
cores:  1

Input parameters:
  h: 0.1
  kpts: {gamma: True,
         size: (8, 8, 8)}
  mode: {ecut: 500.0,
         gammacentered: False,
         name: pw}
  occupations: {name: fermi-dirac,
                width: 0.001}
  xc: PBE

System changes: positions, numbers, cell, pbc, initial_charges, initial_magmoms 

Initialize ...

Bi-setup:
  name: Bismuth
  id: 9be4637686759ed046cc83ce779b1919
  Z: 83
  valence: 15
  core: 68
  charge: 0.0
  file: /content/gpaw-data/gpaw-setups-0.9.20000/Bi.PBE.gz
  cutoffs: 1.21(comp), 2.23(filt), 2.33(core), lmax=2
  valence states:
                energy  radius
    6s(2.00)   -14.385   1.286
    6p(3.00)    -4.580   1.275
    5d(10.00)   -27.119   1.349
    *s          12.827   1.286
    *p          22.631   1.275
    *d           0.093   1.349

  Using partial waves for Bi as LCAO basis

Se-setup:
  name: Selenium
  id: 2336a0774a38175ff9db42ee3890f88a
  Z: 34
  valence: 6
  core: 28
  charge: 0.0
  file: /content/gpaw-data/gpaw-setups-0.9.20000/Se.PBE.gz
  cutoffs: 0.85(comp), 1.77(filt), 2.67(core), lmax=2
  valence states:
                energy  radius
    4s(2.00)   -17.277   0.847
    4p(4.00)    -6.512   1.005
    *s           9.935   0.847
    *p          20.699   1.005
    *d           0.000   0.847

  Using partial waves for Se as LCAO basis

Reference energy: -1368007.362297

Spin-paired calculation

Occupation numbers:
  Fermi-Dirac: width=0.0010 eV

Convergence criteria:
  Maximum total energy change: 0.0005 eV / electron
  Maximum integral of absolute density change: 0.0001 electrons
  Maximum integral of absolute eigenstate change: 4e-08 eV^2
  Maximum number of iterations: 333

Symmetries present (total): 12

  ( 1  0  0)  ( 1  0  0)  ( 0  1  0)  ( 0  1  0)  ( 0  0  1)  ( 0  0  1)
  ( 0  1  0)  ( 0  0  1)  ( 1  0  0)  ( 0  0  1)  ( 1  0  0)  ( 0  1  0)
  ( 0  0  1)  ( 0  1  0)  ( 0  0  1)  ( 1  0  0)  ( 0  1  0)  ( 1  0  0)

  ( 0  0 -1)  ( 0  0 -1)  ( 0 -1  0)  ( 0 -1  0)  (-1  0  0)  (-1  0  0)
  ( 0 -1  0)  (-1  0  0)  ( 0  0 -1)  (-1  0  0)  ( 0  0 -1)  ( 0 -1  0)
  (-1  0  0)  ( 0 -1  0)  (-1  0  0)  ( 0  0 -1)  ( 0 -1  0)  ( 0  0 -1)

512 k-points: 8 x 8 x 8 Monkhorst-Pack grid + [1/16,1/16,1/16]
65 k-points in the irreducible part of the Brillouin zone
       k-points in crystal coordinates                weights
   0:     0.00000000    0.00000000    0.00000000          1/512
   1:     0.12500000    0.00000000   -0.12500000          6/512
   2:     0.12500000    0.00000000    0.00000000          6/512
   3:     0.12500000    0.12500000   -0.12500000          6/512
   4:     0.12500000    0.12500000    0.00000000          6/512
   5:     0.12500000    0.12500000    0.12500000          2/512
   6:     0.25000000   -0.12500000   -0.12500000          6/512
   7:     0.25000000    0.00000000   -0.25000000          6/512
   8:     0.25000000    0.00000000   -0.12500000         12/512
   9:     0.25000000    0.00000000    0.00000000          6/512
          ...
  64:     0.50000000    0.50000000    0.50000000          1/512

Wave functions: Plane wave expansion
  Cutoff energy: 500.000 eV
  Number of coefficients (min, max): 3561, 3621
  Pulay-stress correction: 0.000000 eV/Ang^3 (de/decut=0.000000)
  Using FFTW library
  ScaLapack parameters: grid=1x1, blocksize=None
  Wavefunction extrapolation:
    Improved wavefunction reuse through dual PAW basis 

Eigensolver
   Davidson(niter=2, smin=None, normalize=True) 

Densities:
  Coarse grid: 36*36*36 grid
  Fine grid: 72*72*72 grid
  Total Charge: 0.000000 

Density mixing:
  Method: separate
  Backend: pulay
  Linear mixing parameter: 0.05
  Mixing with 5 old densities
  Damping of long wave oscillations: 50 

Hamiltonian:
  XC and Coulomb potentials evaluated on a 72*72*72 grid
  Using the PBE Exchange-Correlation functional
 

XC parameters: PBE with 2 nearest neighbor stencil

Memory estimate:
  Process memory now: 105.36 MiB
  Calculator: 173.67 MiB
    Density: 14.51 MiB
      Arrays: 9.25 MiB
      Localized functions: 1.70 MiB
      Mixer: 3.56 MiB
    Hamiltonian: 6.09 MiB
      Arrays: 6.05 MiB
      XC: 0.00 MiB
      Poisson: 0.00 MiB
      vbar: 0.04 MiB
    Wavefunctions: 153.07 MiB
      Arrays psit_nG: 107.74 MiB
      Eigensolver: 2.07 MiB
      Projections: 2.23 MiB
      Projectors: 35.65 MiB
      PW-descriptor: 5.37 MiB

Total number of cores used: 1

Number of atoms: 5
Number of atomic orbitals: 30
Number of bands in calculation: 30
Bands to converge: occupied states only
Number of valence electrons: 48

... initialized

Initializing position-dependent things.

Density initialized from atomic densities
Creating initial wave functions:
  30 bands from LCAO basis set

                
                
                
       Bi       
                
                
                
                
                
                
       Se       
                
                
                
                
                
                
       Se       
                
                
                
                
                
                
                
       Se       
                
                
                
                
                
                
       Bi       
                
                
                

Positions:
   0 Bi     0.000000   -0.000000   11.427360    ( 0.0000,  0.0000,  0.0000)
   1 Bi    -0.000000    0.000000  -11.427360    ( 0.0000,  0.0000,  0.0000)
   2 Se     0.000000    0.000000    0.000000    ( 0.0000,  0.0000,  0.0000)
   3 Se    -0.000000    0.000000    5.899840    ( 0.0000,  0.0000,  0.0000)
   4 Se     0.000000   -0.000000   -5.899840    ( 0.0000,  0.0000,  0.0000)

Unit cell:
           periodic     x           y           z      points  spacing
  1. axis:    yes   -2.069000   -1.194538    9.546667    36     0.0988
  2. axis:    yes    2.069000   -1.194538    9.546667    36     0.0988
  3. axis:    yes    0.000000    2.389075    9.546667    36     0.0988

  Lengths:   9.841063   9.841063   9.841063
  Angles:   24.273011  24.273011  24.273011

Effective grid spacing dv^(1/3) = 0.1448

                     log10-error:    total        iterations:
           time      wfs    density  energy       fermi  poisson
iter:   1  15:47:35  -0.07   +inf   -22.131829    0             
iter:   2  15:48:09  -1.95  -1.17   -21.852092    0             
iter:   3  15:48:43  -2.33  -1.25   -21.523549    11            
iter:   4  15:49:18  -2.48  -1.47   -21.441823    0             
iter:   5  15:49:52  -3.63  -1.76   -21.446375    0             
iter:   6  15:50:27  -3.33  -1.79   -21.425447    0             
iter:   7  15:51:02  -3.48  -1.99   -21.431872    0             
iter:   8  15:51:37  -4.64  -2.54   -21.430407    0             
iter:   9  15:52:12  -4.49  -2.60   -21.429763    0             
iter:  10  15:52:47  -4.96  -2.90   -21.429885    0             
iter:  11  15:53:23  -5.78  -3.16   -21.429928    0             
iter:  12  15:53:58  -5.88  -3.09   -21.429908    0             
iter:  13  15:54:33  -5.59  -2.94   -21.429940    0             
iter:  14  15:55:06  -6.23  -3.09   -21.429954    0             
iter:  15  15:55:40  -5.41  -3.14   -21.430002    0             
iter:  16  15:56:15  -6.85  -3.55   -21.429987    0             
iter:  17  15:56:51  -5.96  -3.66   -21.429990    0             
iter:  18  15:57:26  -7.43  -3.85   -21.429991    0             
iter:  19  15:58:01  -7.94  -4.17   -21.429990    0             

Converged after 19 iterations.

Dipole moment: (-0.000000, -0.000000, -0.000000) |e|*Ang

Energy contributions relative to reference atoms: (reference = -1368007.362297)

Kinetic:        +53.547637
Potential:      -51.887066
External:        +0.000000
XC:             -19.975154
Entropy (-ST):   -0.000000
Local:           -3.115406
--------------------------
Free energy:    -21.429990
Extrapolated:   -21.429990

Fermi level: 6.09715

Showing only first 2 kpts
 Kpt  Band  Eigenvalues  Occupancy
  0    22      5.06074    0.00391
  0    23      6.06226    0.00391
  0    24      6.21901    0.00000
  0    25      7.13842    0.00000

  1    22      5.43892    0.02344
  1    23      5.51344    0.02344
  1    24      7.04305    0.00000
  1    25      7.08746    0.00000


Writing to gs_Bi2Se3.gpw (mode='')

Timing:                              incl.     excl.
-----------------------------------------------------------
Hamiltonian:                         0.931     0.002   0.0% |
 Atomic:                             0.557     0.001   0.0% |
  XC Correction:                     0.556     0.556   0.1% |
 Calculate atomic Hamiltonians:      0.008     0.008   0.0% |
 Communicate:                        0.000     0.000   0.0% |
 Initialize Hamiltonian:             0.000     0.000   0.0% |
 Poisson:                            0.000     0.000   0.0% |
 XC 3D grid:                         0.363     0.363   0.1% |
LCAO initialization:                49.822     0.187   0.0% |
 LCAO eigensolver:                   0.806     0.004   0.0% |
  Calculate projections:             0.008     0.008   0.0% |
  DenseAtomicCorrection:             0.019     0.019   0.0% |
  Distribute overlap matrix:         0.002     0.002   0.0% |
  Orbital Layouts:                   0.066     0.066   0.0% |
  Potential matrix:                  0.500     0.500   0.1% |
  Sum over cells:                    0.207     0.207   0.0% |
 LCAO to grid:                      48.335    48.335   6.8% |--|
 Set positions (LCAO WFS):           0.494     0.067   0.0% |
  Basic WFS set positions:           0.001     0.001   0.0% |
  Basis functions set positions:     0.000     0.000   0.0% |
  P tci:                             0.214     0.214   0.0% |
  ST tci:                            0.185     0.185   0.0% |
  mktci:                             0.027     0.027   0.0% |
PWDescriptor:                        0.104     0.104   0.0% |
SCF-cycle:                         660.117     0.122   0.0% |
 Davidson:                         618.485    52.522   7.4% |--|
  Apply H:                         272.890   267.950  37.6% |--------------|
   HMM T:                            4.940     4.940   0.7% |
  Subspace diag:                   107.573     0.195   0.0% |
   calc_h_matrix:                   98.545     4.446   0.6% |
    Apply H:                        94.099    92.342  13.0% |----|
     HMM T:                          1.757     1.757   0.2% |
   diagonalize:                      2.257     2.257   0.3% |
   rotate_psi:                       6.576     6.576   0.9% |
  calc. matrices:                  161.087    19.607   2.7% ||
   Apply H:                        141.481   138.830  19.5% |-------|
    HMM T:                           2.650     2.650   0.4% |
  diagonalize:                       8.760     8.760   1.2% |
  rotate_psi:                       15.653    15.653   2.2% ||
 Density:                           23.136     0.000   0.0% |
  Atomic density matrices:           0.144     0.144   0.0% |
  Mix:                               0.509     0.509   0.1% |
  Multipole moments:                 0.004     0.004   0.0% |
  Pseudo density:                   22.479    21.825   3.1% ||
   Symmetrize density:               0.654     0.654   0.1% |
 Hamiltonian:                       17.401     0.039   0.0% |
  Atomic:                           10.385     0.035   0.0% |
   XC Correction:                   10.350    10.350   1.5% ||
  Calculate atomic Hamiltonians:     0.143     0.143   0.0% |
  Communicate:                       0.000     0.000   0.0% |
  Poisson:                           0.023     0.023   0.0% |
  XC 3D grid:                        6.811     6.811   1.0% |
 Orthonormalize:                     0.973     0.009   0.0% |
  calc_s_matrix:                     0.213     0.213   0.0% |
  inverse-cholesky:                  0.034     0.034   0.0% |
  projections:                       0.545     0.545   0.1% |
  rotate_psi_s:                      0.172     0.172   0.0% |
Set symmetry:                        0.016     0.016   0.0% |
Other:                               2.065     2.065   0.3% |
-----------------------------------------------------------
Total:                                       713.054 100.0%

Date: Wed May  8 15:58:01 2019
