
  ___ ___ ___ _ _ _  
 |   |   |_  | | | | 
 | | | | | . | | | | 
 |__ |  _|___|_____|  1.5.2
 |___|_|             

User:   ???@c99700d482a4
Date:   Thu May  9 16:20:55 2019
Arch:   x86_64
Pid:    4504
Python: 3.6.7
gpaw:   /usr/local/lib/python3.6/dist-packages/gpaw
_gpaw:  /usr/local/lib/python3.6/dist-packages/
        _gpaw.cpython-36m-x86_64-linux-gnu.so
ase:    /usr/local/lib/python3.6/dist-packages/ase (version 3.17.0)
numpy:  /usr/local/lib/python3.6/dist-packages/numpy (version 1.16.3)
scipy:  /usr/local/lib/python3.6/dist-packages/scipy (version 1.2.1)
units:  Angstrom and eV
cores:  1

Input parameters:
  kpts: [8 8 8]
  mode: {ecut: 200.0,
         gammacentered: False,
         name: pw}
  occupations: {name: fermi-dirac,
                width: 0.01}
  random: True
  xc: PBE

System changes: positions, numbers, cell, pbc, initial_charges, initial_magmoms 

Initialize ...

Na-setup:
  name: Sodium
  id: d7ecbc49209718622bcbe287195dca2a
  Z: 11
  valence: 7
  core: 4
  charge: 0.0
  file: /content/gpaw-data/gpaw-setups-0.9.20000/Na.PBE.gz
  cutoffs: 1.18(comp), 2.17(filt), 2.59(core), lmax=2
  valence states:
                energy  radius
    3s(1.00)    -2.744   1.201
    2p(6.00)   -28.672   1.217
    3p(0.00)    -0.743   1.217
    *s          24.468   1.201
    *d           0.000   1.238

  Using partial waves for Na as LCAO basis

Cl-setup:
  name: Chlorine
  id: 726897f06f34e53cf8e33b5885a02604
  Z: 17
  valence: 7
  core: 10
  charge: 0.0
  file: /content/gpaw-data/gpaw-setups-0.9.20000/Cl.PBE.gz
  cutoffs: 0.79(comp), 1.40(filt), 1.49(core), lmax=2
  valence states:
                energy  radius
    3s(2.00)   -20.689   0.794
    3p(5.00)    -8.594   0.794
    *s           6.523   0.794
    *p          18.617   0.794
    *d           0.000   0.794

  Using partial waves for Cl as LCAO basis

Reference energy: -16973.559893

Spin-paired calculation

Occupation numbers:
  Fermi-Dirac: width=0.0100 eV

Convergence criteria:
  Maximum total energy change: 0.0005 eV / electron
  Maximum integral of absolute density change: 0.0001 electrons
  Maximum integral of absolute eigenstate change: 4e-08 eV^2
  Maximum number of iterations: 333

Symmetries present (total): 48

  ( 1  0  0)  ( 1  0  0)  ( 1  0  0)  ( 1  0  0)  ( 1  0 -1)  ( 1  0 -1)
  ( 1  0 -1)  ( 1 -1  0)  ( 0  1  0)  ( 0  0  1)  ( 1  0  0)  ( 1 -1  0)
  ( 1 -1  0)  ( 1  0 -1)  ( 0  0  1)  ( 0  1  0)  ( 1 -1  0)  ( 1  0  0)

  ( 1  0 -1)  ( 1  0 -1)  ( 1 -1  0)  ( 1 -1  0)  ( 1 -1  0)  ( 1 -1  0)
  ( 0  1 -1)  ( 0  0 -1)  ( 1  0  0)  ( 1  0 -1)  ( 0 -1  1)  ( 0 -1  0)
  ( 0  0 -1)  ( 0  1 -1)  ( 1  0 -1)  ( 1  0  0)  ( 0 -1  0)  ( 0 -1  1)

  ( 0  1  0)  ( 0  1  0)  ( 0  1  0)  ( 0  1  0)  ( 0  1 -1)  ( 0  1 -1)
  ( 1  0  0)  ( 0  1 -1)  ( 0  0  1)  (-1  1  0)  ( 1  0 -1)  ( 0  1  0)
  ( 0  0  1)  (-1  1  0)  ( 1  0  0)  ( 0  1 -1)  ( 0  0 -1)  (-1  1  0)

  ( 0  1 -1)  ( 0  1 -1)  ( 0  0  1)  ( 0  0  1)  ( 0  0  1)  ( 0  0  1)
  ( 0  0 -1)  (-1  1  0)  ( 1  0  0)  ( 0  1  0)  ( 0 -1  1)  (-1  0  1)
  ( 1  0 -1)  ( 0  1  0)  ( 0  1  0)  ( 1  0  0)  (-1  0  1)  ( 0 -1  1)

  ( 0  0 -1)  ( 0  0 -1)  ( 0  0 -1)  ( 0  0 -1)  ( 0 -1  1)  ( 0 -1  1)
  ( 1  0 -1)  ( 0  1 -1)  ( 0 -1  0)  (-1  0  0)  ( 1 -1  0)  ( 0  0  1)
  ( 0  1 -1)  ( 1  0 -1)  (-1  0  0)  ( 0 -1  0)  ( 0 -1  0)  (-1  0  1)

  ( 0 -1  1)  ( 0 -1  1)  ( 0 -1  0)  ( 0 -1  0)  ( 0 -1  0)  ( 0 -1  0)
  ( 0 -1  0)  (-1  0  1)  ( 1 -1  0)  ( 0  0 -1)  ( 0 -1  1)  (-1  0  0)
  ( 1 -1  0)  ( 0  0  1)  ( 0 -1  1)  (-1  0  0)  ( 1 -1  0)  ( 0  0 -1)

  (-1  1  0)  (-1  1  0)  (-1  1  0)  (-1  1  0)  (-1  0  1)  (-1  0  1)
  ( 0  1  0)  ( 0  1 -1)  (-1  0  1)  (-1  0  0)  ( 0  0  1)  ( 0 -1  1)
  ( 0  1 -1)  ( 0  1  0)  (-1  0  0)  (-1  0  1)  ( 0 -1  1)  ( 0  0  1)

  (-1  0  1)  (-1  0  1)  (-1  0  0)  (-1  0  0)  (-1  0  0)  (-1  0  0)
  (-1  1  0)  (-1  0  0)  ( 0  0 -1)  ( 0 -1  0)  (-1  1  0)  (-1  0  1)
  (-1  0  0)  (-1  1  0)  ( 0 -1  0)  ( 0  0 -1)  (-1  0  1)  (-1  1  0)
Note: your k-points are not as symmetric as your crystal!

512 k-points: 8 x 8 x 8 Monkhorst-Pack grid
60 k-points in the irreducible part of the Brillouin zone
       k-points in crystal coordinates                weights
   0:     0.06250000    0.06250000   -0.06250000          6/512
   1:     0.06250000    0.06250000    0.06250000          2/512
   2:     0.18750000   -0.06250000   -0.06250000          6/512
   3:     0.18750000    0.06250000   -0.18750000         12/512
   4:     0.18750000    0.06250000   -0.06250000         12/512
   5:     0.18750000    0.06250000    0.06250000          6/512
   6:     0.18750000    0.18750000   -0.18750000          6/512
   7:     0.18750000    0.18750000   -0.06250000          6/512
   8:     0.18750000    0.18750000    0.06250000          6/512
   9:     0.18750000    0.18750000    0.18750000          2/512
          ...
  59:     0.43750000    0.43750000    0.43750000          2/512

Wave functions: Plane wave expansion
  Cutoff energy: 200.000 eV
  Number of coefficients (min, max): 280, 297
  Pulay-stress correction: 0.000000 eV/Ang^3 (de/decut=0.000000)
  Using FFTW library
  ScaLapack parameters: grid=1x1, blocksize=None
  Wavefunction extrapolation:
    Improved wavefunction reuse through dual PAW basis 

Eigensolver
   Davidson(niter=2, smin=None, normalize=True) 

Densities:
  Coarse grid: 12*12*12 grid
  Fine grid: 24*24*24 grid
  Total Charge: 0.000000 

Density mixing:
  Method: separate
  Backend: pulay
  Linear mixing parameter: 0.05
  Mixing with 5 old densities
  Damping of long wave oscillations: 50 

Hamiltonian:
  XC and Coulomb potentials evaluated on a 24*24*24 grid
  Using the PBE Exchange-Correlation functional
 

XC parameters: PBE with 2 nearest neighbor stencil

Memory estimate:
  Process memory now: 79.68 MiB
  Calculator: 7.19 MiB
    Density: 0.77 MiB
      Arrays: 0.34 MiB
      Localized functions: 0.29 MiB
      Mixer: 0.13 MiB
    Hamiltonian: 0.23 MiB
      Arrays: 0.22 MiB
      XC: 0.00 MiB
      Poisson: 0.00 MiB
      vbar: 0.01 MiB
    Wavefunctions: 6.19 MiB
      Arrays psit_nG: 2.99 MiB
      Eigensolver: 0.09 MiB
      Projections: 0.26 MiB
      Projectors: 2.51 MiB
      PW-descriptor: 0.34 MiB

Total number of cores used: 1

Number of atoms: 2
Number of atomic orbitals: 11
Number of bands in calculation: 11
Bands to converge: occupied states only
Number of valence electrons: 14

... initialized

Initializing position-dependent things.

Density initialized from atomic densities
Creating initial wave functions:
  11 bands from LCAO basis set

                       
                       
                       
       Na     Cl       
                       
                       
                       
                       

Positions:
   0 Na     0.000000    0.000000    0.000000    ( 0.0000,  0.0000,  0.0000)
   1 Cl     2.820000    0.000000    0.000000    ( 0.0000,  0.0000,  0.0000)

Unit cell:
           periodic     x           y           z      points  spacing
  1. axis:    yes    0.000000    2.820000    2.820000    12     0.2714
  2. axis:    yes    2.820000    0.000000    2.820000    12     0.2714
  3. axis:    yes    2.820000    2.820000    0.000000    12     0.2714

  Lengths:   3.988082   3.988082   3.988082
  Angles:   60.000000  60.000000  60.000000

Effective grid spacing dv^(1/3) = 0.2961

                     log10-error:    total        iterations:
           time      wfs    density  energy       fermi  poisson
iter:   1  16:20:58  +1.33   +inf    -6.399518    0             
iter:   2  16:21:00  -2.70  -1.33    -6.386513    0             
iter:   3  16:21:01  -2.25  -1.36    -6.338222    0             
iter:   4  16:21:02  -3.47  -1.64    -6.341257    0             
iter:   5  16:21:04  -3.07  -1.69    -6.355210    0             
iter:   6  16:21:05  -3.66  -2.16    -6.350804    0             
iter:   7  16:21:07  -4.60  -2.99    -6.350997    0             
iter:   8  16:21:08  -4.25  -2.68    -6.350957    0             
iter:   9  16:21:09  -5.94  -3.52    -6.350957    0             
iter:  10  16:21:11  -7.23  -3.45    -6.350952    0             
iter:  11  16:21:12  -7.70  -3.62    -6.350950    0             
iter:  12  16:21:13  -6.37  -3.65    -6.350947    0             
iter:  13  16:21:15  -8.09  -4.18    -6.350946    0             

Converged after 13 iterations.

Dipole moment: (-0.000000, -0.000000, -0.000000) |e|*Ang

Energy contributions relative to reference atoms: (reference = -16973.559893)

Kinetic:         +6.368628
Potential:       -6.737458
External:        +0.000000
XC:              -6.681922
Entropy (-ST):   -0.000000
Local:           +0.699807
--------------------------
Free energy:     -6.350946
Extrapolated:    -6.350946

Fermi level: 1.55444

Showing only first 2 kpts
 Kpt  Band  Eigenvalues  Occupancy
  0     5     -0.58727    0.02344
  0     6     -0.57706    0.02344
  0     7      5.04979    0.00000
  0     8     10.09610    0.00000

  1     5     -0.52840    0.00781
  1     6     -0.52840    0.00781
  1     7      4.72213    0.00000
  1     8     10.50293    0.00000


Writing to NaCl_gs.gpw (mode='')

Timing:                              incl.     excl.
-----------------------------------------------------------
Hamiltonian:                         0.124     0.000   0.0% |
 Atomic:                             0.108     0.001   0.0% |
  XC Correction:                     0.107     0.107   0.3% |
 Calculate atomic Hamiltonians:      0.001     0.001   0.0% |
 Communicate:                        0.000     0.000   0.0% |
 Initialize Hamiltonian:             0.000     0.000   0.0% |
 Poisson:                            0.000     0.000   0.0% |
 XC 3D grid:                         0.014     0.014   0.0% |
LCAO initialization:                 1.477     0.126   0.4% |
 LCAO eigensolver:                   0.192     0.003   0.0% |
  Calculate projections:             0.002     0.002   0.0% |
  DenseAtomicCorrection:             0.008     0.008   0.0% |
  Distribute overlap matrix:         0.001     0.001   0.0% |
  Orbital Layouts:                   0.015     0.015   0.0% |
  Potential matrix:                  0.028     0.028   0.1% |
  Sum over cells:                    0.134     0.134   0.4% |
 LCAO to grid:                       0.925     0.925   2.7% ||
 Set positions (LCAO WFS):           0.234     0.035   0.1% |
  Basic WFS set positions:           0.003     0.003   0.0% |
  Basis functions set positions:     0.000     0.000   0.0% |
  P tci:                             0.064     0.064   0.2% |
  ST tci:                            0.120     0.120   0.4% |
  mktci:                             0.012     0.012   0.0% |
PWDescriptor:                        0.011     0.011   0.0% |
SCF-cycle:                          17.730     0.063   0.2% |
 Davidson:                          14.237     3.798  11.0% |---|
  Apply H:                           1.864     1.582   4.6% |-|
   HMM T:                            0.282     0.282   0.8% |
  Subspace diag:                     2.012     0.104   0.3% |
   calc_h_matrix:                    1.351     0.720   2.1% ||
    Apply H:                         0.631     0.532   1.5% ||
     HMM T:                          0.098     0.098   0.3% |
   diagonalize:                      0.236     0.236   0.7% |
   rotate_psi:                       0.322     0.322   0.9% |
  calc. matrices:                    4.533     3.364   9.8% |---|
   Apply H:                          1.169     0.987   2.9% ||
    HMM T:                           0.182     0.182   0.5% |
  diagonalize:                       1.562     1.562   4.5% |-|
  rotate_psi:                        0.468     0.468   1.4% ||
 Density:                            0.607     0.000   0.0% |
  Atomic density matrices:           0.096     0.096   0.3% |
  Mix:                               0.044     0.044   0.1% |
  Multipole moments:                 0.002     0.002   0.0% |
  Pseudo density:                    0.465     0.322   0.9% |
   Symmetrize density:               0.144     0.144   0.4% |
 Hamiltonian:                        2.723     0.011   0.0% |
  Atomic:                            2.340     0.011   0.0% |
   XC Correction:                    2.329     2.329   6.8% |--|
  Calculate atomic Hamiltonians:     0.016     0.016   0.0% |
  Communicate:                       0.000     0.000   0.0% |
  Poisson:                           0.002     0.002   0.0% |
  XC 3D grid:                        0.355     0.355   1.0% |
 Orthonormalize:                     0.099     0.007   0.0% |
  calc_s_matrix:                     0.026     0.026   0.1% |
  inverse-cholesky:                  0.025     0.025   0.1% |
  projections:                       0.031     0.031   0.1% |
  rotate_psi_s:                      0.010     0.010   0.0% |
Set symmetry:                        0.055     0.055   0.2% |
Other:                              14.983    14.983  43.6% |----------------|
-----------------------------------------------------------
Total:                                        34.379 100.0%

Date: Thu May  9 16:21:29 2019
