
  ___ ___ ___ _ _ _  
 |   |   |_  | | | | 
 | | | | | . | | | | 
 |__ |  _|___|_____|  1.5.2
 |___|_|             

User:   ???@c99700d482a4
Date:   Thu May  9 14:43:21 2019
Arch:   x86_64
Pid:    3330
Python: 3.6.7
gpaw:   /usr/local/lib/python3.6/dist-packages/gpaw
_gpaw:  /usr/local/lib/python3.6/dist-packages/
        _gpaw.cpython-36m-x86_64-linux-gnu.so
ase:    /usr/local/lib/python3.6/dist-packages/ase (version 3.17.0)
numpy:  /usr/local/lib/python3.6/dist-packages/numpy (version 1.16.3)
scipy:  /usr/local/lib/python3.6/dist-packages/scipy (version 1.2.1)
units:  Angstrom and eV
cores:  1

Reading from gs_Bi2Te3.gpw
Read dipole, energy, free_energy
Reading input parameters:
  h: 0.1
  kpts: {gamma: True,
         size: [8 8 8]}
  mode: {ecut: 500.0,
         gammacentered: False,
         name: pw}
  occupations: {name: fermi-dirac,
                width: 0.001}
  xc: PBE

Initialize ...

Bi-setup:
  name: Bismuth
  id: 9be4637686759ed046cc83ce779b1919
  Z: 83
  valence: 15
  core: 68
  charge: 0.0
  file: /content/gpaw-data/gpaw-setups-0.9.20000/Bi.PBE.gz
  cutoffs: 1.21(comp), 2.23(filt), 2.33(core), lmax=2
  valence states:
                energy  radius
    6s(2.00)   -14.385   1.286
    6p(3.00)    -4.580   1.275
    5d(10.00)   -27.119   1.349
    *s          12.827   1.286
    *p          22.631   1.275
    *d           0.093   1.349

  Using partial waves for Bi as LCAO basis

Te-setup:
  name: Tellurium
  id: e44b9ef4772d7e5a1c6a47e6d6496588
  Z: 52
  valence: 6
  core: 46
  charge: 0.0
  file: /content/gpaw-data/gpaw-setups-0.9.20000/Te.PBE.gz
  cutoffs: 1.14(comp), 2.09(filt), 3.17(core), lmax=2
  valence states:
                energy  radius
    5s(2.00)   -15.089   1.180
    5p(4.00)    -5.955   1.196
    *s          12.123   1.180
    *p          21.256   1.196
    *d           0.000   1.238

  Using partial waves for Te as LCAO basis

Reference energy: -1724068.816207

Spin-paired calculation

Occupation numbers:
  Fermi-Dirac: width=0.0010 eV

Convergence criteria:
  Maximum total energy change: 0.0005 eV / electron
  Maximum integral of absolute density change: 0.0001 electrons
  Maximum integral of absolute eigenstate change: 4e-08 eV^2
  Maximum number of iterations: 333

Symmetries present (total): 12

  ( 1  0  0)  ( 1  0  0)  ( 0  1  0)  ( 0  1  0)  ( 0  0  1)  ( 0  0  1)
  ( 0  1  0)  ( 0  0  1)  ( 1  0  0)  ( 0  0  1)  ( 1  0  0)  ( 0  1  0)
  ( 0  0  1)  ( 0  1  0)  ( 0  0  1)  ( 1  0  0)  ( 0  1  0)  ( 1  0  0)

  ( 0  0 -1)  ( 0  0 -1)  ( 0 -1  0)  ( 0 -1  0)  (-1  0  0)  (-1  0  0)
  ( 0 -1  0)  (-1  0  0)  ( 0  0 -1)  (-1  0  0)  ( 0  0 -1)  ( 0 -1  0)
  (-1  0  0)  ( 0 -1  0)  (-1  0  0)  ( 0  0 -1)  ( 0 -1  0)  ( 0  0 -1)

512 k-points: 8 x 8 x 8 Monkhorst-Pack grid + [1/16,1/16,1/16]
65 k-points in the irreducible part of the Brillouin zone
       k-points in crystal coordinates                weights
   0:     0.00000000    0.00000000    0.00000000          1/512
   1:     0.12500000    0.00000000   -0.12500000          6/512
   2:     0.12500000    0.00000000    0.00000000          6/512
   3:     0.12500000    0.12500000   -0.12500000          6/512
   4:     0.12500000    0.12500000    0.00000000          6/512
   5:     0.12500000    0.12500000    0.12500000          2/512
   6:     0.25000000   -0.12500000   -0.12500000          6/512
   7:     0.25000000    0.00000000   -0.25000000          6/512
   8:     0.25000000    0.00000000   -0.12500000         12/512
   9:     0.25000000    0.00000000    0.00000000          6/512
          ...
  64:     0.50000000    0.50000000    0.50000000          1/512

Wave functions: Plane wave expansion
  Cutoff energy: 500.000 eV
  Number of coefficients (min, max): 4231, 4314
  Pulay-stress correction: 0.000000 eV/Ang^3 (de/decut=0.000000)
  Using FFTW library
  ScaLapack parameters: grid=1x1, blocksize=None
  Wavefunction extrapolation:
    Improved wavefunction reuse through dual PAW basis 

Eigensolver
   Davidson(niter=2, smin=None, normalize=True) 

Densities:
  Coarse grid: 40*40*40 grid
  Fine grid: 80*80*80 grid
  Total Charge: 0.000000 

Density mixing:
  Method: separate
  Backend: pulay
  Linear mixing parameter: 0.05
  Mixing with 5 old densities
  Damping of long wave oscillations: 50 

Hamiltonian:
  XC and Coulomb potentials evaluated on a 80*80*80 grid
  Using the PBE Exchange-Correlation functional
 

XC parameters: PBE with 2 nearest neighbor stencil

Memory estimate:
  Process memory now: 117.31 MiB
  Calculator: 210.53 MiB
    Density: 19.89 MiB
      Arrays: 12.70 MiB
      Localized functions: 2.31 MiB
      Mixer: 4.88 MiB
    Hamiltonian: 8.36 MiB
      Arrays: 8.30 MiB
      XC: 0.00 MiB
      Poisson: 0.00 MiB
      vbar: 0.06 MiB
    Wavefunctions: 182.28 MiB
      Arrays psit_nG: 128.36 MiB
      Eigensolver: 2.44 MiB
      Projections: 2.23 MiB
      Projectors: 42.53 MiB
      PW-descriptor: 6.72 MiB

Total number of cores used: 1

Number of atoms: 5
Number of atomic orbitals: 30
Number of bands in calculation: 30
Bands to converge: occupied states only
Number of valence electrons: 48

... initialized

Input parameters:
  fixdensity: True
  kpts: [[0.         0.         0.        ],
         [0.02380952 0.02380952 0.02380952],
         [0.04761905 0.04761905 0.04761905],
         ...,
         [0.48333333 0.         0.        ],
         [0.49166667 0.         0.        ],
         [0.5        0.         0.        ]]
  symmetry: off

Initialize ...

Bi-setup:
  name: Bismuth
  id: 9be4637686759ed046cc83ce779b1919
  Z: 83
  valence: 15
  core: 68
  charge: 0.0
  file: /content/gpaw-data/gpaw-setups-0.9.20000/Bi.PBE.gz
  cutoffs: 1.21(comp), 2.23(filt), 2.33(core), lmax=2
  valence states:
                energy  radius
    6s(2.00)   -14.385   1.286
    6p(3.00)    -4.580   1.275
    5d(10.00)   -27.119   1.349
    *s          12.827   1.286
    *p          22.631   1.275
    *d           0.093   1.349

  Using partial waves for Bi as LCAO basis

Te-setup:
  name: Tellurium
  id: e44b9ef4772d7e5a1c6a47e6d6496588
  Z: 52
  valence: 6
  core: 46
  charge: 0.0
  file: /content/gpaw-data/gpaw-setups-0.9.20000/Te.PBE.gz
  cutoffs: 1.14(comp), 2.09(filt), 3.17(core), lmax=2
  valence states:
                energy  radius
    5s(2.00)   -15.089   1.180
    5p(4.00)    -5.955   1.196
    *s          12.123   1.180
    *p          21.256   1.196
    *d           0.000   1.238

  Using partial waves for Te as LCAO basis

Reference energy: -1724068.816207

Spin-paired calculation

Occupation numbers:
  Fixed Fermi level
  Fermi-Dirac: width=0.0010 eV

Convergence criteria:
  Maximum total energy change: 0.0005 eV / electron
  Maximum integral of absolute density change: 0.0001 electrons
  Maximum integral of absolute eigenstate change: 4e-08 eV^2
  Maximum number of iterations: 333

Symmetries present (total): 1

  ( 1  0  0)
  ( 0  1  0)
  ( 0  0  1)

200 k-points
200 k-points in the irreducible part of the Brillouin zone
       k-points in crystal coordinates                weights
   0:     0.00000000    0.00000000    0.00000000       0.00500000
   1:     0.02380952    0.02380952    0.02380952       0.00500000
   2:     0.04761905    0.04761905    0.04761905       0.00500000
   3:     0.07142857    0.07142857    0.07142857       0.00500000
   4:     0.09523810    0.09523810    0.09523810       0.00500000
   5:     0.11904762    0.11904762    0.11904762       0.00500000
   6:     0.14285714    0.14285714    0.14285714       0.00500000
   7:     0.16666667    0.16666667    0.16666667       0.00500000
   8:     0.19047619    0.19047619    0.19047619       0.00500000
   9:     0.21428571    0.21428571    0.21428571       0.00500000
          ...
 199:     0.50000000    0.00000000    0.00000000       0.00500000

Wave functions: Plane wave expansion
  Cutoff energy: 500.000 eV
  Number of coefficients (min, max): 4225, 4316
  Pulay-stress correction: 0.000000 eV/Ang^3 (de/decut=0.000000)
  Using FFTW library
  ScaLapack parameters: grid=1x1, blocksize=None
  Wavefunction extrapolation:
    Improved wavefunction reuse through dual PAW basis 

Eigensolver
   Davidson(niter=2, smin=None, normalize=True) 

No density mixing

XC parameters: PBE with 2 nearest neighbor stencil

Memory estimate:
  Process memory now: 127.86 MiB
  Calculator: 578.72 MiB
    Density: 19.89 MiB
      Arrays: 12.70 MiB
      Localized functions: 2.31 MiB
      Mixer: 4.88 MiB
    Hamiltonian: 8.36 MiB
      Arrays: 8.30 MiB
      XC: 0.00 MiB
      Poisson: 0.00 MiB
      vbar: 0.06 MiB
    Wavefunctions: 550.47 MiB
      Arrays psit_nG: 395.14 MiB
      Eigensolver: 2.44 MiB
      Projections: 6.87 MiB
      Projectors: 130.41 MiB
      PW-descriptor: 15.61 MiB

Total number of cores used: 1

Number of atoms: 5
Number of atomic orbitals: 30
Number of bands in calculation: 30
Bands to converge: occupied states only
Number of valence electrons: 48

... initialized

Initializing position-dependent things.

Creating initial wave functions:
  30 bands from LCAO basis set

                
                
                
       Bi       
                
                
                
                
                
                
                
       Te       
                
                
                
                
                
                
                
       Te       
                
                
                
                
                
                
       Te       
                
                
                
                
                
                
                
       Bi       
                
                
                

Positions:
   0 Bi    -0.000000    0.000000   12.194800    ( 0.0000,  0.0000,  0.0000)
   1 Bi     0.000000   -0.000000  -12.194800    ( 0.0000,  0.0000,  0.0000)
   2 Te     0.000000    0.000000    0.000000    ( 0.0000,  0.0000,  0.0000)
   3 Te    -0.000000    0.000000    6.463244    ( 0.0000,  0.0000,  0.0000)
   4 Te     0.000000   -0.000000   -6.463244    ( 0.0000,  0.0000,  0.0000)

Unit cell:
           periodic     x           y           z      points  spacing
  1. axis:    yes   -2.191750   -1.265407   10.162333    40     0.0942
  2. axis:    yes    2.191750   -1.265407   10.162333    40     0.0942
  3. axis:    yes    0.000000    2.530815   10.162333    40     0.0942

  Lengths:  10.472729  10.472729  10.472729
  Angles:   24.160518  24.160518  24.160518

Effective grid spacing dv^(1/3) = 0.1382

                     log10-error:    total        iterations:
           time      wfs    density  energy       fermi  poisson
iter:   1  14:48:26  -0.02          -13.173744    0             
iter:   2  14:50:15  -1.82          -13.208087    0             
iter:   3  14:52:03  -2.84          -13.210242    0             
iter:   4  14:53:52  -3.70          -13.210510    0             
iter:   5  14:55:42  -4.50          -13.210556    0             
iter:   6  14:57:30  -5.26          -13.210565    0             
iter:   7  14:59:19  -5.98          -13.210566    0             
iter:   8  15:01:08  -6.69          -13.210567    0             
iter:   9  15:02:57  -7.40          -13.210567    0             

Converged after 9 iterations.

Dipole moment: (-0.000000, -0.000000, -0.000000) |e|*Ang

Energy contributions relative to reference atoms: (reference = -1724068.816207)

Kinetic:        +74.377198
Potential:      -64.312931
External:        +0.000000
XC:             -20.717565
Entropy (-ST):   -0.000000
Local:           -2.557269
--------------------------
Free energy:    -13.210567
Extrapolated:   -13.210567

Fixed Fermi level: 6.04323

Showing only first 2 kpts
 Kpt  Band  Eigenvalues  Occupancy
  0    22      5.04753    0.01000
  0    23      5.96344    0.01000
  0    24      6.22425    0.00000
  0    25      6.69581    0.00000

  1    22      5.04652    0.01000
  1    23      5.95994    0.01000
  1    24      6.22804    0.00000
  1    25      6.69756    0.00000


Writing to Bi2Te3_bands.gpw (mode='')

Timing:                              incl.     excl.
-----------------------------------------------------------
Hamiltonian:                         1.216     0.002   0.0% |
 Atomic:                             0.692     0.006   0.0% |
  XC Correction:                     0.686     0.686   0.1% |
 Calculate atomic Hamiltonians:      0.012     0.012   0.0% |
 Communicate:                        0.000     0.000   0.0% |
 Poisson:                            0.001     0.001   0.0% |
 XC 3D grid:                         0.509     0.509   0.0% |
LCAO initialization:               182.601     0.198   0.0% |
 LCAO eigensolver:                   1.465     0.014   0.0% |
  Calculate projections:             0.026     0.026   0.0% |
  DenseAtomicCorrection:             0.069     0.069   0.0% |
  Distribute overlap matrix:         0.007     0.007   0.0% |
  Orbital Layouts:                   0.214     0.214   0.0% |
  Potential matrix:                  0.483     0.483   0.0% |
  Sum over cells:                    0.652     0.652   0.1% |
 LCAO to grid:                     179.566   179.566  15.3% |-----|
 Set positions (LCAO WFS):           1.372     0.183   0.0% |
  Basic WFS set positions:           0.000     0.000   0.0% |
  Basis functions set positions:     0.000     0.000   0.0% |
  P tci:                             0.697     0.697   0.1% |
  ST tci:                            0.464     0.464   0.0% |
  mktci:                             0.027     0.027   0.0% |
PWDescriptor:                        0.658     0.658   0.1% |
Redistribute:                        0.001     0.001   0.0% |
SCF-cycle:                         985.558     0.137   0.0% |
 Davidson:                         981.508    86.806   7.4% |--|
  Apply H:                         427.689   418.916  35.6% |-------------|
   HMM T:                            8.772     8.772   0.7% |
  Subspace diag:                   164.849     0.494   0.0% |
   calc_h_matrix:                  150.799     7.531   0.6% |
    Apply H:                       143.268   140.255  11.9% |----|
     HMM T:                          3.013     3.013   0.3% |
   diagonalize:                      1.644     1.644   0.1% |
   rotate_psi:                      11.912    11.912   1.0% |
  calc. matrices:                  262.343    36.919   3.1% ||
   Apply H:                        225.424   220.583  18.8% |-------|
    HMM T:                           4.840     4.840   0.4% |
  diagonalize:                      10.200    10.200   0.9% |
  rotate_psi:                       29.621    29.621   2.5% ||
 Orthonormalize:                     3.913     0.053   0.0% |
  calc_s_matrix:                     0.905     0.905   0.1% |
  inverse-cholesky:                  0.129     0.129   0.0% |
  projections:                       2.080     2.080   0.2% |
  rotate_psi_s:                      0.747     0.747   0.1% |
Set symmetry:                        0.024     0.024   0.0% |
Other:                               6.282     6.282   0.5% |
-----------------------------------------------------------
Total:                                      1176.339 100.0%

Date: Thu May  9 15:02:57 2019
