
  ___ ___ ___ _ _ _  
 |   |   |_  | | | | 
 | | | | | . | | | | 
 |__ |  _|___|_____|  1.5.2
 |___|_|             

User:   ???@c99700d482a4
Date:   Thu May  9 14:28:41 2019
Arch:   x86_64
Pid:    3077
Python: 3.6.7
gpaw:   /usr/local/lib/python3.6/dist-packages/gpaw
_gpaw:  /usr/local/lib/python3.6/dist-packages/
        _gpaw.cpython-36m-x86_64-linux-gnu.so
ase:    /usr/local/lib/python3.6/dist-packages/ase (version 3.17.0)
numpy:  /usr/local/lib/python3.6/dist-packages/numpy (version 1.16.3)
scipy:  /usr/local/lib/python3.6/dist-packages/scipy (version 1.2.1)
units:  Angstrom and eV
cores:  1

Input parameters:
  h: 0.1
  kpts: {gamma: True,
         size: (8, 8, 8)}
  mode: {ecut: 500.0,
         gammacentered: False,
         name: pw}
  occupations: {name: fermi-dirac,
                width: 0.001}
  xc: PBE

System changes: positions, numbers, cell, pbc, initial_charges, initial_magmoms 

Initialize ...

Bi-setup:
  name: Bismuth
  id: 9be4637686759ed046cc83ce779b1919
  Z: 83
  valence: 15
  core: 68
  charge: 0.0
  file: /content/gpaw-data/gpaw-setups-0.9.20000/Bi.PBE.gz
  cutoffs: 1.21(comp), 2.23(filt), 2.33(core), lmax=2
  valence states:
                energy  radius
    6s(2.00)   -14.385   1.286
    6p(3.00)    -4.580   1.275
    5d(10.00)   -27.119   1.349
    *s          12.827   1.286
    *p          22.631   1.275
    *d           0.093   1.349

  Using partial waves for Bi as LCAO basis

Te-setup:
  name: Tellurium
  id: e44b9ef4772d7e5a1c6a47e6d6496588
  Z: 52
  valence: 6
  core: 46
  charge: 0.0
  file: /content/gpaw-data/gpaw-setups-0.9.20000/Te.PBE.gz
  cutoffs: 1.14(comp), 2.09(filt), 3.17(core), lmax=2
  valence states:
                energy  radius
    5s(2.00)   -15.089   1.180
    5p(4.00)    -5.955   1.196
    *s          12.123   1.180
    *p          21.256   1.196
    *d           0.000   1.238

  Using partial waves for Te as LCAO basis

Reference energy: -1724068.816207

Spin-paired calculation

Occupation numbers:
  Fermi-Dirac: width=0.0010 eV

Convergence criteria:
  Maximum total energy change: 0.0005 eV / electron
  Maximum integral of absolute density change: 0.0001 electrons
  Maximum integral of absolute eigenstate change: 4e-08 eV^2
  Maximum number of iterations: 333

Symmetries present (total): 12

  ( 1  0  0)  ( 1  0  0)  ( 0  1  0)  ( 0  1  0)  ( 0  0  1)  ( 0  0  1)
  ( 0  1  0)  ( 0  0  1)  ( 1  0  0)  ( 0  0  1)  ( 1  0  0)  ( 0  1  0)
  ( 0  0  1)  ( 0  1  0)  ( 0  0  1)  ( 1  0  0)  ( 0  1  0)  ( 1  0  0)

  ( 0  0 -1)  ( 0  0 -1)  ( 0 -1  0)  ( 0 -1  0)  (-1  0  0)  (-1  0  0)
  ( 0 -1  0)  (-1  0  0)  ( 0  0 -1)  (-1  0  0)  ( 0  0 -1)  ( 0 -1  0)
  (-1  0  0)  ( 0 -1  0)  (-1  0  0)  ( 0  0 -1)  ( 0 -1  0)  ( 0  0 -1)

512 k-points: 8 x 8 x 8 Monkhorst-Pack grid + [1/16,1/16,1/16]
65 k-points in the irreducible part of the Brillouin zone
       k-points in crystal coordinates                weights
   0:     0.00000000    0.00000000    0.00000000          1/512
   1:     0.12500000    0.00000000   -0.12500000          6/512
   2:     0.12500000    0.00000000    0.00000000          6/512
   3:     0.12500000    0.12500000   -0.12500000          6/512
   4:     0.12500000    0.12500000    0.00000000          6/512
   5:     0.12500000    0.12500000    0.12500000          2/512
   6:     0.25000000   -0.12500000   -0.12500000          6/512
   7:     0.25000000    0.00000000   -0.25000000          6/512
   8:     0.25000000    0.00000000   -0.12500000         12/512
   9:     0.25000000    0.00000000    0.00000000          6/512
          ...
  64:     0.50000000    0.50000000    0.50000000          1/512

Wave functions: Plane wave expansion
  Cutoff energy: 500.000 eV
  Number of coefficients (min, max): 4231, 4314
  Pulay-stress correction: 0.000000 eV/Ang^3 (de/decut=0.000000)
  Using FFTW library
  ScaLapack parameters: grid=1x1, blocksize=None
  Wavefunction extrapolation:
    Improved wavefunction reuse through dual PAW basis 

Eigensolver
   Davidson(niter=2, smin=None, normalize=True) 

Densities:
  Coarse grid: 40*40*40 grid
  Fine grid: 80*80*80 grid
  Total Charge: 0.000000 

Density mixing:
  Method: separate
  Backend: pulay
  Linear mixing parameter: 0.05
  Mixing with 5 old densities
  Damping of long wave oscillations: 50 

Hamiltonian:
  XC and Coulomb potentials evaluated on a 80*80*80 grid
  Using the PBE Exchange-Correlation functional
 

XC parameters: PBE with 2 nearest neighbor stencil

Memory estimate:
  Process memory now: 113.00 MiB
  Calculator: 210.53 MiB
    Density: 19.89 MiB
      Arrays: 12.70 MiB
      Localized functions: 2.31 MiB
      Mixer: 4.88 MiB
    Hamiltonian: 8.36 MiB
      Arrays: 8.30 MiB
      XC: 0.00 MiB
      Poisson: 0.00 MiB
      vbar: 0.06 MiB
    Wavefunctions: 182.28 MiB
      Arrays psit_nG: 128.36 MiB
      Eigensolver: 2.44 MiB
      Projections: 2.23 MiB
      Projectors: 42.53 MiB
      PW-descriptor: 6.72 MiB

Total number of cores used: 1

Number of atoms: 5
Number of atomic orbitals: 30
Number of bands in calculation: 30
Bands to converge: occupied states only
Number of valence electrons: 48

... initialized

Initializing position-dependent things.

Density initialized from atomic densities
Creating initial wave functions:
  30 bands from LCAO basis set

                
                
                
       Bi       
                
                
                
                
                
                
                
       Te       
                
                
                
                
                
                
                
       Te       
                
                
                
                
                
                
       Te       
                
                
                
                
                
                
                
       Bi       
                
                
                

Positions:
   0 Bi    -0.000000    0.000000   12.194800    ( 0.0000,  0.0000,  0.0000)
   1 Bi     0.000000   -0.000000  -12.194800    ( 0.0000,  0.0000,  0.0000)
   2 Te     0.000000    0.000000    0.000000    ( 0.0000,  0.0000,  0.0000)
   3 Te    -0.000000    0.000000    6.463244    ( 0.0000,  0.0000,  0.0000)
   4 Te     0.000000   -0.000000   -6.463244    ( 0.0000,  0.0000,  0.0000)

Unit cell:
           periodic     x           y           z      points  spacing
  1. axis:    yes   -2.191750   -1.265407   10.162333    40     0.0942
  2. axis:    yes    2.191750   -1.265407   10.162333    40     0.0942
  3. axis:    yes    0.000000    2.530815   10.162333    40     0.0942

  Lengths:  10.472729  10.472729  10.472729
  Angles:   24.160518  24.160518  24.160518

Effective grid spacing dv^(1/3) = 0.1382

                     log10-error:    total        iterations:
           time      wfs    density  energy       fermi  poisson
iter:   1  14:30:23  +0.01   +inf   -20.256034    0             
iter:   2  14:31:01  -1.79  -1.32   -20.212048    0             
iter:   3  14:31:40  -2.42  -1.37   -20.056719    0             
iter:   4  14:32:19  -2.73  -1.59   -20.071936    0             
iter:   5  14:32:58  -3.77  -1.79   -20.069041    0             
iter:   6  14:33:37  -3.50  -1.84   -20.055078    0             
iter:   7  14:34:16  -3.63  -2.17   -20.054650    0             
iter:   8  14:34:54  -4.48  -2.59   -20.054399    0             
iter:   9  14:35:33  -4.43  -2.71   -20.054333    0             
iter:  10  14:36:11  -5.45  -3.12   -20.054290    0             
iter:  11  14:36:50  -5.79  -2.99   -20.054362    0             
iter:  12  14:37:29  -6.31  -3.04   -20.054308    0             
iter:  13  14:38:08  -5.61  -3.11   -20.054444    0             
iter:  14  14:38:46  -5.61  -2.97   -20.054294    0             
iter:  15  14:39:25  -5.85  -3.23   -20.054384    0             
iter:  16  14:40:04  -5.77  -3.21   -20.054368    0             
iter:  17  14:40:42  -6.53  -3.40   -20.054380    0             
iter:  18  14:41:21  -6.03  -3.43   -20.054397    0             
iter:  19  14:42:00  -6.92  -3.66   -20.054392    0             
iter:  20  14:42:39  -7.57  -3.92   -20.054391    0             
iter:  21  14:43:17  -7.59  -4.04   -20.054389    0             

Converged after 21 iterations.

Dipole moment: (-0.000000, -0.000000, -0.000000) |e|*Ang

Energy contributions relative to reference atoms: (reference = -1724068.816207)

Kinetic:        +67.535718
Potential:      -64.314729
External:        +0.000000
XC:             -20.718618
Entropy (-ST):   -0.000000
Local:           -2.556761
--------------------------
Free energy:    -20.054389
Extrapolated:   -20.054389

Fermi level: 6.04323

Showing only first 2 kpts
 Kpt  Band  Eigenvalues  Occupancy
  0    22      5.04754    0.00391
  0    23      5.96345    0.00391
  0    24      6.22425    0.00000
  0    25      6.69581    0.00000

  1    22      5.52720    0.02344
  1    23      5.53102    0.02344
  1    24      6.67664    0.00000
  1    25      7.15125    0.00000


Writing to gs_Bi2Te3.gpw (mode='')

Timing:                              incl.     excl.
-----------------------------------------------------------
Hamiltonian:                         1.190     0.002   0.0% |
 Atomic:                             0.645     0.002   0.0% |
  XC Correction:                     0.643     0.643   0.1% |
 Calculate atomic Hamiltonians:      0.013     0.013   0.0% |
 Communicate:                        0.000     0.000   0.0% |
 Initialize Hamiltonian:             0.002     0.002   0.0% |
 Poisson:                            0.001     0.001   0.0% |
 XC 3D grid:                         0.528     0.528   0.1% |
LCAO initialization:                59.799     0.206   0.0% |
 LCAO eigensolver:                   0.842     0.005   0.0% |
  Calculate projections:             0.009     0.009   0.0% |
  DenseAtomicCorrection:             0.024     0.024   0.0% |
  Distribute overlap matrix:         0.002     0.002   0.0% |
  Orbital Layouts:                   0.103     0.103   0.0% |
  Potential matrix:                  0.484     0.484   0.1% |
  Sum over cells:                    0.215     0.215   0.0% |
 LCAO to grid:                      58.224    58.224   6.6% |--|
 Set positions (LCAO WFS):           0.528     0.085   0.0% |
  Basic WFS set positions:           0.001     0.001   0.0% |
  Basis functions set positions:     0.000     0.000   0.0% |
  P tci:                             0.242     0.242   0.0% |
  ST tci:                            0.170     0.170   0.0% |
  mktci:                             0.029     0.029   0.0% |
PWDescriptor:                        0.340     0.340   0.0% |
SCF-cycle:                         812.534     0.121   0.0% |
 Davidson:                         753.206    68.342   7.8% |--|
  Apply H:                         325.462   318.795  36.4% |--------------|
   HMM T:                            6.667     6.667   0.8% |
  Subspace diag:                   125.499     0.369   0.0% |
   calc_h_matrix:                  114.999     5.715   0.7% |
    Apply H:                       109.285   107.037  12.2% |----|
     HMM T:                          2.247     2.247   0.3% |
   diagonalize:                      1.276     1.276   0.1% |
   rotate_psi:                       8.856     8.856   1.0% |
  calc. matrices:                  203.798    32.364   3.7% ||
   Apply H:                        171.433   167.730  19.1% |-------|
    HMM T:                           3.703     3.703   0.4% |
  diagonalize:                       7.636     7.636   0.9% |
  rotate_psi:                       22.469    22.469   2.6% ||
 Density:                           34.102     0.001   0.0% |
  Atomic density matrices:           0.174     0.174   0.0% |
  Mix:                               0.885     0.885   0.1% |
  Multipole moments:                 0.005     0.005   0.0% |
  Pseudo density:                   33.038    32.015   3.7% ||
   Symmetrize density:               1.023     1.023   0.1% |
 Hamiltonian:                       23.777     0.063   0.0% |
  Atomic:                           13.059     0.037   0.0% |
   XC Correction:                   13.022    13.022   1.5% ||
  Calculate atomic Hamiltonians:     0.268     0.268   0.0% |
  Communicate:                       0.000     0.000   0.0% |
  Poisson:                           0.020     0.020   0.0% |
  XC 3D grid:                       10.367    10.367   1.2% |
 Orthonormalize:                     1.326     0.017   0.0% |
  calc_s_matrix:                     0.322     0.322   0.0% |
  inverse-cholesky:                  0.061     0.061   0.0% |
  projections:                       0.679     0.679   0.1% |
  rotate_psi_s:                      0.247     0.247   0.0% |
Set symmetry:                        0.017     0.017   0.0% |
Other:                               2.628     2.628   0.3% |
-----------------------------------------------------------
Total:                                       876.508 100.0%

Date: Thu May  9 14:43:18 2019
