
  ___ ___ ___ _ _ _  
 |   |   |_  | | | | 
 | | | | | . | | | | 
 |__ |  _|___|_____|  1.5.2
 |___|_|             

User:   ???@1a3ae72a72e0
Date:   Wed May  8 11:40:31 2019
Arch:   x86_64
Pid:    3242
Python: 3.6.7
gpaw:   /usr/local/lib/python3.6/dist-packages/gpaw
_gpaw:  /usr/local/lib/python3.6/dist-packages/
        _gpaw.cpython-36m-x86_64-linux-gnu.so
ase:    /usr/local/lib/python3.6/dist-packages/ase (version 3.17.0)
numpy:  /usr/local/lib/python3.6/dist-packages/numpy (version 1.16.3)
scipy:  /usr/local/lib/python3.6/dist-packages/scipy (version 1.2.1)
units:  Angstrom and eV
cores:  1

Input parameters:
  kpts: [15 15  1]
  mode: {ecut: 600.0,
         gammacentered: False,
         name: pw}
  occupations: {name: fermi-dirac,
                width: 0.01}
  setups: {W: 6}
  xc: PBE

System changes: positions, numbers, cell, pbc, initial_charges, initial_magmoms 

Initialize ...

W-setup:
  name: Tungsten
  id: ebae78b11d6dc8006b738fbf52f1756f
  Z: 74
  valence: 6
  core: 68
  charge: 0.0
  file: /content/gpaw-data/gpaw-setups-0.9.20000/W.6.PBE.gz
  cutoffs: 1.48(comp), 2.63(filt), 3.38(core), lmax=2
  valence states:
                energy  radius
    6s(2.00)    -5.697   1.482
    6p(0.00)    -1.367   1.482
    5d(4.00)    -4.494   1.482
    *s          21.515   1.482
    *p          25.844   1.482
    *d          22.717   1.482

  Using partial waves for W as LCAO basis

S-setup:
  name: Sulfur
  id: ca434db9faa07220b7a1d8cb6886b7a9
  Z: 16
  valence: 6
  core: 10
  charge: 0.0
  file: /content/gpaw-data/gpaw-setups-0.9.20000/S.PBE.gz
  cutoffs: 0.76(comp), 1.77(filt), 1.66(core), lmax=2
  valence states:
                energy  radius
    3s(2.00)   -17.254   0.974
    3p(4.00)    -7.008   0.979
    *s           9.957   0.974
    *p          20.203   0.979
    *d           0.000   0.900

  Using partial waves for S as LCAO basis

Reference energy: -460486.911463

Spin-paired calculation

Occupation numbers:
  Fermi-Dirac: width=0.0100 eV

Convergence criteria:
  Maximum total energy change: 0.0005 eV / electron
  Maximum integral of absolute density change: 0.0001 electrons
  Maximum integral of absolute eigenstate change: 4e-08 eV^2
  Maximum number of iterations: 333

Symmetries present (total): 12

  ( 1  1  0)  ( 1  1  0)  ( 1  0  0)  ( 1  0  0)  ( 0  1  0)  ( 0  1  0)
  ( 0 -1  0)  ( 0 -1  0)  ( 0  1  0)  ( 0  1  0)  (-1 -1  0)  (-1 -1  0)
  ( 0  0  1)  ( 0  0 -1)  ( 0  0  1)  ( 0  0 -1)  ( 0  0  1)  ( 0  0 -1)

  ( 0 -1  0)  ( 0 -1  0)  (-1  0  0)  (-1  0  0)  (-1 -1  0)  (-1 -1  0)
  (-1  0  0)  (-1  0  0)  ( 1  1  0)  ( 1  1  0)  ( 1  0  0)  ( 1  0  0)
  ( 0  0  1)  ( 0  0 -1)  ( 0  0  1)  ( 0  0 -1)  ( 0  0  1)  ( 0  0 -1)

225 k-points: 15 x 15 x 1 Monkhorst-Pack grid
27 k-points in the irreducible part of the Brillouin zone
       k-points in crystal coordinates                weights
   0:     0.00000000    0.00000000    0.00000000          1/225
   1:     0.06666667    0.00000000    0.00000000          6/225
   2:     0.13333333   -0.06666667    0.00000000          6/225
   3:     0.13333333    0.00000000    0.00000000          6/225
   4:     0.20000000   -0.06666667    0.00000000         12/225
   5:     0.20000000    0.00000000    0.00000000          6/225
   6:     0.26666667   -0.13333333    0.00000000          6/225
   7:     0.26666667   -0.06666667    0.00000000         12/225
   8:     0.26666667    0.00000000    0.00000000          6/225
   9:     0.33333333   -0.13333333    0.00000000         12/225
          ...
  26:     0.46666667    0.46666667    0.00000000          6/225

Wave functions: Plane wave expansion
  Cutoff energy: 600.000 eV
  Number of coefficients (min, max): 3444, 3503
  Pulay-stress correction: 0.000000 eV/Ang^3 (de/decut=0.000000)
  Using FFTW library
  ScaLapack parameters: grid=1x1, blocksize=None
  Wavefunction extrapolation:
    Improved wavefunction reuse through dual PAW basis 

Eigensolver
   Davidson(niter=2, smin=None, normalize=True) 

Densities:
  Coarse grid: 15*15*70 grid
  Fine grid: 30*30*140 grid
  Total Charge: 0.000000 

Density mixing:
  Method: separate
  Backend: pulay
  Linear mixing parameter: 0.05
  Mixing with 5 old densities
  Damping of long wave oscillations: 50 

Hamiltonian:
  XC and Coulomb potentials evaluated on a 30*30*140 grid
  Using the PBE Exchange-Correlation functional
 

XC parameters: PBE with 2 nearest neighbor stencil

Memory estimate:
  Process memory now: 90.29 MiB
  Calculator: 48.50 MiB
    Density: 7.04 MiB
      Arrays: 3.12 MiB
      Localized functions: 2.72 MiB
      Mixer: 1.20 MiB
    Hamiltonian: 2.11 MiB
      Arrays: 2.04 MiB
      XC: 0.00 MiB
      Poisson: 0.00 MiB
      vbar: 0.07 MiB
    Wavefunctions: 39.34 MiB
      Arrays psit_nG: 21.65 MiB
      Eigensolver: 1.10 MiB
      Projections: 0.27 MiB
      Projectors: 14.28 MiB
      PW-descriptor: 2.04 MiB

Total number of cores used: 1

Number of atoms: 3
Number of atomic orbitals: 17
Number of bands in calculation: 15
Bands to converge: occupied states only
Number of valence electrons: 18

... initialized

Initializing position-dependent things.

Density initialized from atomic densities
Creating initial wave functions:
  15 bands from LCAO basis set

                     
                     
                     
                     
            S        
                     
       W             
                     
            S        
                     
                     
                     
                     

Positions:
   0 W      0.000000    0.000000    6.000000    ( 0.0000,  0.0000,  0.0000)
   1 S      1.580000    0.912213    7.586000    ( 0.0000,  0.0000,  0.0000)
   2 S      1.580000    0.912213    4.414000    ( 0.0000,  0.0000,  0.0000)

Unit cell:
           periodic     x           y           z      points  spacing
  1. axis:    yes    3.160000    0.000000    0.000000    15     0.1824
  2. axis:    yes   -1.580000    2.736640    0.000000    15     0.1824
  3. axis:    yes    0.000000    0.000000   12.000000    70     0.1714

  Lengths:   3.160000   3.160000  12.000000
  Angles:   90.000000  90.000000 120.000000

Effective grid spacing dv^(1/3) = 0.1875

                     log10-error:    total        iterations:
           time      wfs    density  energy       fermi  poisson
iter:   1  11:40:40  +1.06   +inf   -21.921671    0             
iter:   2  11:40:44  -0.68  -1.09   -21.972041    0             
iter:   3  11:40:49  -1.65  -1.11   -21.846526    0             
iter:   4  11:40:54  -1.49  -1.19   -21.749097    0             
iter:   5  11:40:59  -1.37  -1.44   -21.810910    2             
iter:   6  11:41:03  -2.18  -1.64   -21.813203    0             
iter:   7  11:41:07  -1.52  -1.66   -21.770161    0             
iter:   8  11:41:10  -2.87  -2.13   -21.758299    0             
iter:   9  11:41:15  -3.29  -2.58   -21.760178    0             
iter:  10  11:41:19  -3.56  -2.31   -21.758690    0             
iter:  11  11:41:23  -4.16  -2.78   -21.758512    0             
iter:  12  11:41:29  -5.31  -3.14   -21.758538    0             
iter:  13  11:41:33  -4.78  -3.00   -21.758507    0             
iter:  14  11:41:38  -5.81  -3.15   -21.758500    0             
iter:  15  11:41:43  -4.91  -3.18   -21.758488    0             
iter:  16  11:41:47  -6.10  -3.30   -21.758475    0             
iter:  17  11:41:52  -5.89  -3.38   -21.758464    0             
iter:  18  11:41:57  -6.53  -3.47   -21.758470    0             
iter:  19  11:42:02  -5.88  -3.44   -21.758462    0             
iter:  20  11:42:07  -6.77  -3.57   -21.758459    0             
iter:  21  11:42:11  -7.07  -3.73   -21.758459    0             
iter:  22  11:42:16  -7.47  -3.74   -21.758458    0             
iter:  23  11:42:20  -6.41  -3.81   -21.758458    0             
iter:  24  11:42:24  -7.73  -4.17   -21.758458    0             

Converged after 24 iterations.

Dipole moment: (3.470984, -2.003974, -0.000000) |e|*Ang

Energy contributions relative to reference atoms: (reference = -460486.911463)

Kinetic:        +11.496253
Potential:      -14.077694
External:        +0.000000
XC:             -19.770825
Entropy (-ST):   -0.000000
Local:           +0.593808
--------------------------
Free energy:    -21.758458
Extrapolated:   -21.758458

Fermi level: 1.86896

Showing only first 2 kpts
 Kpt  Band  Eigenvalues  Occupancy
  0     7     -0.38617    0.00889
  0     8      0.92036    0.00889
  0     9      4.06238    0.00000
  0    10      4.06238    0.00000

  1     7     -0.28993    0.05333
  1     8      0.89348    0.05333
  1     9      3.94492    0.00000
  1    10      3.98505    0.00000


Writing to WS2_gs.gpw (mode='')

Timing:                              incl.     excl.
-----------------------------------------------------------
Hamiltonian:                         0.508     0.001   0.0% |
 Atomic:                             0.355     0.005   0.0% |
  XC Correction:                     0.350     0.350   0.3% |
 Calculate atomic Hamiltonians:      0.008     0.008   0.0% |
 Communicate:                        0.000     0.000   0.0% |
 Initialize Hamiltonian:             0.000     0.000   0.0% |
 Poisson:                            0.001     0.001   0.0% |
 XC 3D grid:                         0.143     0.143   0.1% |
LCAO initialization:                 2.610     0.185   0.2% |
 LCAO eigensolver:                   0.150     0.002   0.0% |
  Calculate projections:             0.001     0.001   0.0% |
  DenseAtomicCorrection:             0.005     0.005   0.0% |
  Distribute overlap matrix:         0.001     0.001   0.0% |
  Orbital Layouts:                   0.013     0.013   0.0% |
  Potential matrix:                  0.114     0.114   0.1% |
  Sum over cells:                    0.014     0.014   0.0% |
 LCAO to grid:                       2.114     2.114   1.9% ||
 Set positions (LCAO WFS):           0.161     0.030   0.0% |
  Basic WFS set positions:           0.001     0.001   0.0% |
  Basis functions set positions:     0.000     0.000   0.0% |
  P tci:                             0.055     0.055   0.0% |
  ST tci:                            0.062     0.062   0.1% |
  mktci:                             0.013     0.013   0.0% |
PWDescriptor:                        0.023     0.023   0.0% |
SCF-cycle:                         108.834     0.066   0.1% |
 Davidson:                          93.735    17.309  15.3% |-----|
  Apply H:                          29.229    27.744  24.5% |---------|
   HMM T:                            1.485     1.485   1.3% ||
  Subspace diag:                    13.333     0.115   0.1% |
   calc_h_matrix:                   11.257     1.580   1.4% ||
    Apply H:                         9.677     9.170   8.1% |--|
     HMM T:                          0.508     0.508   0.4% |
   diagonalize:                      0.316     0.316   0.3% |
   rotate_psi:                       1.644     1.644   1.5% ||
  calc. matrices:                   29.860     9.838   8.7% |--|
   Apply H:                         20.022    18.982  16.7% |------|
    HMM T:                           1.039     1.039   0.9% |
  diagonalize:                       1.733     1.733   1.5% ||
  rotate_psi:                        2.271     2.271   2.0% ||
 Density:                            4.005     0.001   0.0% |
  Atomic density matrices:           0.056     0.056   0.0% |
  Mix:                               0.345     0.345   0.3% |
  Multipole moments:                 0.004     0.004   0.0% |
  Pseudo density:                    3.599     3.311   2.9% ||
   Symmetrize density:               0.288     0.288   0.3% |
 Hamiltonian:                       10.794     0.024   0.0% |
  Atomic:                            7.247     0.035   0.0% |
   XC Correction:                    7.212     7.212   6.4% |--|
  Calculate atomic Hamiltonians:     0.193     0.193   0.2% |
  Communicate:                       0.000     0.000   0.0% |
  Poisson:                           0.018     0.018   0.0% |
  XC 3D grid:                        3.311     3.311   2.9% ||
 Orthonormalize:                     0.233     0.005   0.0% |
  calc_s_matrix:                     0.037     0.037   0.0% |
  inverse-cholesky:                  0.021     0.021   0.0% |
  projections:                       0.146     0.146   0.1% |
  rotate_psi_s:                      0.025     0.025   0.0% |
Set symmetry:                        0.017     0.017   0.0% |
Other:                               1.380     1.380   1.2% |
-----------------------------------------------------------
Total:                                       113.373 100.0%

Date: Wed May  8 11:42:25 2019
